LAMMPS (17 Apr 2024)
OMP_NUM_THREADS environment is not set. Defaulting to 1 thread. (src/comm.cpp:98)
  using 1 OpenMP thread(s) per MPI task
<<<<<<< HEAD
Open of file C:\Users\PanGroupWorkstation\Desktop\LAMMPS USER-REBOMOS Plugin 15Jun2023-MSMPI\rebomosplugin.so failed: 
Loaded 0 plugins from C:\Users\PanGroupWorkstation\Desktop\LAMMPS USER-REBOMOS Plugin 15Jun2023-MSMPI
Loaded 1 plugins from C:\Users\PanGroupWorkstation\AppData\Local\LAMMPS 64-bit 17Apr2024\plugins
# input file for producing initial structure
=======
Loaded 1 plugins from C:\Users\raven\AppData\Local\LAMMPS 64-bit 19Nov2024\plugins
# input file for producing initial structure without relaxation
>>>>>>> bd84377168056d2a54aaed404a6b8127acba4d5b

# initial settings
units metal
dimension 3
boundary p p p
atom_style charge
# atom_modify map array

# variable size equal 20         # model size
# variable latparam equal 3.50   # initial lattice parameter

<<<<<<< HEAD
# lattice         fcc ${latparam}
# region          box block 0 ${size} 0 ${size} 0 ${size}
# create_box      3 box
# create_atoms    1 box
# substitute one type of atom with another type of atom, can be used to create multi-components system

# variables
variable cutoff equal 1.25
variable angle equal 0.34
=======
# variables
variable latparam equal 3.945
variable degree equal 4
variable scale equal sqrt(145)
variable nx equal 2
variable ny equal 3
variable nz equal 6
variable pi equal 3.14159265
variable x_scale equal v_latparam/tan(v_degree/2*v_pi/180)

variable xmin equal 0
variable xmax equal "v_x_scale*v_nx + 2*v_latparam"
variable ymin equal "-1*v_ny*v_scale*v_latparam"
variable ymax equal "v_ny*v_scale*v_latparam"
variable zmin equal 0
variable zmax equal "v_nz*v_latparam"

variable xcenter equal "(v_xmin+v_xmax)/2"
variable ycenter equal 0
variable zcenter equal "(v_zmin+v_zmax)/2"

variable disp_x equal "v_latparam*v_scale*0.0"
variable disp_z equal "v_latparam*0.0"
# print "${disp}"

region whole block ${xmin} ${xmax} ${ymin} ${ymax} ${zmin} ${zmax} units box
region whole block 0 ${xmax} ${ymin} ${ymax} ${zmin} ${zmax} units box
region whole block 0 233.830038660588 ${ymin} ${ymax} ${zmin} ${zmax} units box
region whole block 0 233.830038660588 -142.512271840007 ${ymax} ${zmin} ${zmax} units box
region whole block 0 233.830038660588 -142.512271840007 142.512271840007 ${zmin} ${zmax} units box
region whole block 0 233.830038660588 -142.512271840007 142.512271840007 0 ${zmax} units box
region whole block 0 233.830038660588 -142.512271840007 142.512271840007 0 23.67 units box
create_box 3 whole
Created orthogonal box = (0 -142.51227 0) to (233.83004 142.51227 23.67)
  1 by 1 by 1 MPI processor grid

region lower block INF INF ${ymin} ${ycenter} INF INF units box
region lower block INF INF -142.512271840007 ${ycenter} INF INF units box
region lower block INF INF -142.512271840007 0 INF INF units box

lattice custom 1         orient x 200 -7 0 orient y 7 200 0 orient z 0 0 1         a1 ${latparam} 0 0 a2 0 ${latparam} 0 a3 0 0 ${latparam}         basis 0 0 0         basis 0.5 0.5 0.5         basis 0.0 0.5 0.5         basis 0.5 0.0 0.5         basis 0.5 0.5 0.0
lattice custom 1         orient x 200 -7 0 orient y 7 200 0 orient z 0 0 1         a1 3.945 0 0 a2 0 ${latparam} 0 a3 0 0 ${latparam}         basis 0 0 0         basis 0.5 0.5 0.5         basis 0.0 0.5 0.5         basis 0.5 0.0 0.5         basis 0.5 0.5 0.0
lattice custom 1         orient x 200 -7 0 orient y 7 200 0 orient z 0 0 1         a1 3.945 0 0 a2 0 3.945 0 a3 0 0 ${latparam}         basis 0 0 0         basis 0.5 0.5 0.5         basis 0.0 0.5 0.5         basis 0.5 0.0 0.5         basis 0.5 0.5 0.0
lattice custom 1         orient x 200 -7 0 orient y 7 200 0 orient z 0 0 1         a1 3.945 0 0 a2 0 3.945 0 a3 0 0 3.945         basis 0 0 0         basis 0.5 0.5 0.5         basis 0.0 0.5 0.5         basis 0.5 0.0 0.5         basis 0.5 0.5 0.0
Lattice spacing in x,y,z = 4.0805764 4.0805764 3.945

create_atoms 1 region lower                basis 1 1                basis 2 2                basis 3 3                basis 4 3                basis 5 3
Created 64260 atoms
  using lattice units in orthogonal box = (0 -142.51227 0) to (233.83004 142.51227 23.67)
  create_atoms CPU = 0.005 seconds

region upper block INF INF ${ycenter} ${ymax} INF INF units box
region upper block INF INF 0 ${ymax} INF INF units box
region upper block INF INF 0 142.512271840007 INF INF units box

lattice custom 1         orient x 200 7 0 orient y -7 200 0 orient z 0 0 1         a1 ${latparam} 0 0 a2 0 ${latparam} 0 a3 0 0 ${latparam}         basis 0 0 0         basis 0.5 0.5 0.5         basis 0.0 0.5 0.5         basis 0.5 0.0 0.5         basis 0.5 0.5 0.0
lattice custom 1         orient x 200 7 0 orient y -7 200 0 orient z 0 0 1         a1 3.945 0 0 a2 0 ${latparam} 0 a3 0 0 ${latparam}         basis 0 0 0         basis 0.5 0.5 0.5         basis 0.0 0.5 0.5         basis 0.5 0.0 0.5         basis 0.5 0.5 0.0
lattice custom 1         orient x 200 7 0 orient y -7 200 0 orient z 0 0 1         a1 3.945 0 0 a2 0 3.945 0 a3 0 0 ${latparam}         basis 0 0 0         basis 0.5 0.5 0.5         basis 0.0 0.5 0.5         basis 0.5 0.0 0.5         basis 0.5 0.5 0.0
lattice custom 1         orient x 200 7 0 orient y -7 200 0 orient z 0 0 1         a1 3.945 0 0 a2 0 3.945 0 a3 0 0 3.945         basis 0 0 0         basis 0.5 0.5 0.5         basis 0.0 0.5 0.5         basis 0.5 0.0 0.5         basis 0.5 0.5 0.0
Lattice spacing in x,y,z = 4.0805764 4.0805764 3.945

create_atoms 1 region upper                basis 1 1                basis 2 2                basis 3 3                basis 4 3                basis 5 3
Created 64260 atoms
  using lattice units in orthogonal box = (0 -142.51227 0) to (233.83004 142.51227 23.67)
  create_atoms CPU = 0.006 seconds

# substitute one type of atom with another type of atom, can be used to create multi-components system

group lower region lower
64266 atoms in group lower
group upper region upper
64266 atoms in group upper

displace_atoms lower move ${disp_x} 0 0 units box
displace_atoms lower move 0 0 0 units box
Displacing atoms ...
displace_atoms lower move 0 0 ${disp_z} units box
displace_atoms lower move 0 0 0 units box
Displacing atoms ...

# rotate around y axis
variable angle equal 0 # <angle>
displace_atoms lower rotate ${xcenter} ${ycenter} ${zcenter} 0 1 0 ${angle} # 0.34
displace_atoms lower rotate 116.915019330294 ${ycenter} ${zcenter} 0 1 0 ${angle} 
displace_atoms lower rotate 116.915019330294 0 ${zcenter} 0 1 0 ${angle} 
displace_atoms lower rotate 116.915019330294 0 11.835 0 1 0 ${angle} 
displace_atoms lower rotate 116.915019330294 0 11.835 0 1 0 0 
Displacing atoms ...
displace_atoms upper rotate ${xcenter} ${ycenter} ${zcenter} 0 1 0 -${angle}
displace_atoms upper rotate 116.915019330294 ${ycenter} ${zcenter} 0 1 0 -${angle}
displace_atoms upper rotate 116.915019330294 0 ${zcenter} 0 1 0 -${angle}
displace_atoms upper rotate 116.915019330294 0 11.835 0 1 0 -${angle}
displace_atoms upper rotate 116.915019330294 0 11.835 0 1 0 -0
Displacing atoms ...
>>>>>>> bd84377168056d2a54aaed404a6b8127acba4d5b

# read data
read_data  SrTiO3_0.5_0.txt #../../../initial_structure/additional_data/SrTiO3_2_0.34.data
Reading data file ...
  orthogonal box = (0 -47.504091 0) to (237.52045 47.504091 7.89)
  1 by 1 by 1 MPI processor grid
  reading atoms ...
  13858 atoms
  read_data CPU = 0.122 seconds

mass 1 87.62000000    # Sr
mass 2 47.86700000    # Ti
mass 3 15.99900000    # O

<<<<<<< HEAD
# set type 1 charge <Sr_charge>
# set type 2 charge <Ti_charge>
# set type 3 charge <O_charge>
=======
set type 1 charge 1.2
Setting atom values ...
  25764 settings made for charge
set type 2 charge 2.4
Setting atom values ...
  25668 settings made for charge
set type 3 charge -1.2
Setting atom values ...
  77088 settings made for charge
>>>>>>> bd84377168056d2a54aaed404a6b8127acba4d5b

# potential setting

variable lj_cut equal 2.50
variable coul_cut equal 4.50
variable morse_cut equal 4.50

pair_style hybrid/overlay lj/long/coul/long off long ${lj_cut} ${coul_cut} morse ${morse_cut}
pair_style hybrid/overlay lj/long/coul/long off long 2.5 ${coul_cut} morse ${morse_cut}
pair_style hybrid/overlay lj/long/coul/long off long 2.5 4.5 morse ${morse_cut}
pair_style hybrid/overlay lj/long/coul/long off long 2.5 4.5 morse 4.5
kspace_style pppm/disp 1e-5

# pair_coeff * * lj/long/coul/long 0.00 0
pair_coeff 1 3 lj/long/coul/long 0.75 1
pair_coeff 2 3 lj/long/coul/long 0.25 1
pair_coeff 3 3 lj/long/coul/long 5.50 1

pair_coeff * * morse 0.00 0.00 0.00
pair_coeff 1 3 morse 0.019623 1.886000 3.328330
pair_coeff 2 3 morse 0.024235 2.254703 2.708943
pair_coeff 3 3 morse 0.042395 1.379316 3.618701

# delete overlap atoms
<<<<<<< HEAD
#variable cutoff equal 1.8
#delete_atoms overlap ${cutoff} all all

compute peratom all pe/atom

variable tcharge equal charge(all)
print "total charge is now ${tcharge}"
total charge is now 0.915761273809372

# minimize energy
=======
variable cutoff equal 0.5 # <cutoff>
delete_atoms overlap ${cutoff} lower upper
delete_atoms overlap 0.5 lower upper
System init for delete_atoms ...
Generated 0 of 3 mixed pair_coeff terms from geometric mixing rule
Neighbor list info ...
  update: every = 1 steps, delay = 0 steps, check = yes
  max neighbors/atom: 2000, page size: 100000
  master list distance cutoff = 4.5
  ghost atom cutoff = 4.5
  binsize = 2.25, bins = 104 127 11
  2 neighbor lists, perpetual/occasional/extra = 1 1 0
  (1) command delete_atoms, occasional
      attributes: full, newton on
      pair build: full/bin/atomonly
      stencil: full/bin/3d
      bin: standard
  (2) pair lj/cut, perpetual
      attributes: half, newton on
      pair build: half/bin/atomonly/newton
      stencil: half/bin/3d
      bin: standard
Deleted 222 atoms, new total = 128298

# reset ion charges
group negative type 3
76962 atoms in group negative
group positive subtract all negative
51336 atoms in group positive
variable totalCharge equal charge(all)
variable numofpositive equal count(positive)
variable numofnegative equal count(negative)
variable positiveCharge equal "0.5*v_totalCharge/v_numofpositive"
variable negativeCharge equal "0.5*v_totalCharge/v_numofnegative"
variable charge1 equal "1.2-v_positiveCharge"
variable charge2 equal "2.4-v_positiveCharge"
variable charge3 equal "-1.2-v_negativeCharge"

print "----------charge information------------"
----------charge information------------
print "total charge is now ${totalCharge}"
total charge is now 1.02140518265514e-14
print "positive charge is now ${positiveCharge}"
positive charge is now 9.94823498768058e-20
print "negative charge is now ${negativeCharge}"
negative charge is now 6.6357759846102e-20
print "charge1 is now ${charge1}"
charge1 is now 1.2
print "charge2 is now ${charge2}"
charge2 is now 2.4
print "charge3 is now ${charge3}"
charge3 is now -1.2

variable num_of_atoms equal count(all)

print "${cutoff} ${charge1} ${charge2} ${charge3} ${num_of_atoms}" append charge.txt
0.5 1.2 2.4 -1.2 128298

set type 1 charge ${charge1}
set type 1 charge 1.2
Setting atom values ...
  25710 settings made for charge
set type 2 charge ${charge2}
set type 2 charge 2.4
Setting atom values ...
  25626 settings made for charge
set type 3 charge ${charge3}
set type 3 charge -1.2
Setting atom values ...
  76962 settings made for charge

write_data SrTiO3_${cutoff}_${angle}.data nocoeff
write_data SrTiO3_0.5_${angle}.data nocoeff
write_data SrTiO3_0.5_0.data nocoeff
System init for write_data ...
Generated 0 of 3 mixed pair_coeff terms from geometric mixing rule
Neighbor list info ...
  update: every = 1 steps, delay = 0 steps, check = yes
  max neighbors/atom: 2000, page size: 100000
  master list distance cutoff = 4.5
  ghost atom cutoff = 4.5
  binsize = 2.25, bins = 104 127 11
  1 neighbor lists, perpetual/occasional/extra = 1 0 0
  (1) pair lj/cut, perpetual
      attributes: half, newton on
      pair build: half/bin/atomonly/newton
      stencil: half/bin/3d
      bin: standard

# dump 1 all custom 20000 SrTiO3_min_1.8.dump.* id type q x y z
# dump_modify 1 sort id
# min_style cg
>>>>>>> bd84377168056d2a54aaed404a6b8127acba4d5b
# minimize  1e-25 1e-25 20000 20000
thermo 100
thermo_style custom step temp lx ly lz pe pxx pyy pzz press vol

minimize 1e-25 1e-25 20000 20000
PPPMDisp initialization ...
WARNING: System is not charge neutral, net charge = 0.91576127 (src/kspace.cpp:327)
Generated 0 of 3 mixed pair_coeff terms from geometric mixing rule
  Coulomb G vector (1/distance)= 0.7462716161018074
  Coulomb grid = 720 288 24
  Coulomb stencil order = 5
  Coulomb estimated absolute RMS force accuracy = 0.00015242313
  Coulomb estimated relative force accuracy = 1.0585201e-05
  using double precision FFTW3
  3d grid and FFT values/proc = 7649915 4976640
Generated 0 of 3 mixed pair_coeff terms from geometric mixing rule
Neighbor list info ...
  update: every = 1 steps, delay = 0 steps, check = yes
  max neighbors/atom: 2000, page size: 100000
  master list distance cutoff = 6.5
  ghost atom cutoff = 6.5
  binsize = 3.25, bins = 74 30 3
  3 neighbor lists, perpetual/occasional/extra = 3 0 0
  (1) pair morse, perpetual
      attributes: half, newton on
      pair build: half/bin/atomonly/newton
      stencil: half/bin/3d
      bin: standard
  (2) pair lj/long/coul/long, perpetual, skip from (1)
      attributes: half, newton on
      pair build: skip
      stencil: none
      bin: none
  (3) pair morse, perpetual, copy from (1)
      attributes: half, newton on
      pair build: copy
      stencil: none
      bin: none
Per MPI rank memory allocation (min/avg/max) = 1186 | 1186 | 1186 Mbytes
   Step          Temp            Lx             Ly             Lz           PotEng          Pxx            Pyy            Pzz           Press          Volume    
         0   0              237.52045      95.008181      7.89          -160665.58      463257.76      150014.25     -13084.07       200062.64      178048.79    
       100   0              237.52045      95.008181      7.89          -167762.84     -20302.462     -34549.85      -25789.69      -26880.667      178048.79    
       152   0              237.52045      95.008181      7.89          -167768.45     -22519.485     -39669.9       -28193.904     -30127.763      178048.79    
Loop time of 419.255 on 1 procs for 152 steps with 13858 atoms

99.7% CPU use with 1 MPI tasks x 1 OpenMP threads

Minimization stats:
  Stopping criterion = linesearch alpha is zero
  Energy initial, next-to-last, final = 
     -160665.580142021  -167768.447323104  -167768.447323104
  Force two-norm initial, final = 29593.967 0.81218154
  Force max component initial, final = 4282.8518 0.17378935
  Final line search alpha, max atom move = 1.6912902e-08 2.9392822e-09
  Iterations, force evaluations = 152 319

MPI task timing breakdown:
Section |  min time  |  avg time  |  max time  |%varavg| %total
---------------------------------------------------------------
Pair    | 7.2356     | 7.2356     | 7.2356     |   0.0 |  1.73
Kspace  | 411.69     | 411.69     | 411.69     |   0.0 | 98.20
Neigh   | 0.092088   | 0.092088   | 0.092088   |   0.0 |  0.02
Comm    | 0.093747   | 0.093747   | 0.093747   |   0.0 |  0.02
Output  | 0.000732   | 0.000732   | 0.000732   |   0.0 |  0.00
Modify  | 0          | 0          | 0          |   0.0 |  0.00
Other   |            | 0.1433     |            |       |  0.03

Nlocal:          13858 ave       13858 max       13858 min
Histogram: 1 0 0 0 0 0 0 0 0 0
Nghost:          32743 ave       32743 max       32743 min
Histogram: 1 0 0 0 0 0 0 0 0 0
Neighs:         634722 ave      634722 max      634722 min
Histogram: 1 0 0 0 0 0 0 0 0 0

Total # of neighbors = 634722
Ave neighs/atom = 45.801847
Neighbor list builds = 4
Dangerous builds = 0

# relax box
reset_timestep 0
fix 1 all box/relax aniso 0.0 vmax 0.001
# fix 1 all box/relax aniso 0.0 vmax 0.001 fixedpoint 0 0 0
# fix 1 all box/relax y 0.0 vmax 0.001
#dump 1 all custom 20000 SrTiO3_min.dump.* id type q x y z c_peratom
#dump_modify 1 sort id
min_style cg
minimize  1e-25 1e-25 20000 20000
PPPMDisp initialization ...
Generated 0 of 3 mixed pair_coeff terms from geometric mixing rule
  Coulomb G vector (1/distance)= 0.7462716161018765
  Coulomb grid = 720 288 24
  Coulomb stencil order = 5
  Coulomb estimated absolute RMS force accuracy = 0.00015242315
  Coulomb estimated relative force accuracy = 1.0585202e-05
  using double precision FFTW3
  3d grid and FFT values/proc = 7649915 4976640
Generated 0 of 3 mixed pair_coeff terms from geometric mixing rule
WARNING: Energy due to 3 extra global DOFs will be included in minimizer energies
 (src/min.cpp:219)
Per MPI rank memory allocation (min/avg/max) = 1186 | 1186 | 1186 Mbytes
   Step          Temp            Lx             Ly             Lz           PotEng          Pxx            Pyy            Pzz           Press          Volume    
         0   0              237.52045      95.008181      7.89          -167768.45     -22519.485     -39669.9       -28193.904     -30127.763      178048.79    
        21   0              237.5207       93.365407      7.8577756     -167820.34      1631.8177      240.45774      573.60679      815.29407      174255.73    
Loop time of 181.611 on 1 procs for 21 steps with 13858 atoms

99.8% CPU use with 1 MPI tasks x 1 OpenMP threads

Minimization stats:
  Stopping criterion = linesearch alpha is zero
  Energy initial, next-to-last, final = 
     -167768.447323104  -167820.344068482  -167820.344068482
  Force two-norm initial, final = 5959.3967 190.14337
  Force max component initial, final = 4408.489 177.47938
  Final line search alpha, max atom move = 1.8738148e-13 3.3256348e-11
  Iterations, force evaluations = 21 73

MPI task timing breakdown:
Section |  min time  |  avg time  |  max time  |%varavg| %total
---------------------------------------------------------------
Pair    | 1.6941     | 1.6941     | 1.6941     |   0.0 |  0.93
Kspace  | 80.535     | 80.535     | 80.535     |   0.0 | 44.34
Neigh   | 0.0461     | 0.0461     | 0.0461     |   0.0 |  0.03
Comm    | 0.02122    | 0.02122    | 0.02122    |   0.0 |  0.01
Output  | 0          | 0          | 0          |   0.0 |  0.00
Modify  | 0          | 0          | 0          |   0.0 |  0.00
Other   |            | 99.31      |            |       | 54.69

Nlocal:          13858 ave       13858 max       13858 min
Histogram: 1 0 0 0 0 0 0 0 0 0
Nghost:          32765 ave       32765 max       32765 min
Histogram: 1 0 0 0 0 0 0 0 0 0
Neighs:         646106 ave      646106 max      646106 min
Histogram: 1 0 0 0 0 0 0 0 0 0

Total # of neighbors = 646106
Ave neighs/atom = 46.623322
Neighbor list builds = 2
Dangerous builds = 0

write_data SrTiO3_relaxed_${cutoff}_${angle}.data nocoeff
write_data SrTiO3_relaxed_1.25_${angle}.data nocoeff
write_data SrTiO3_relaxed_1.25_0.34.data nocoeff
System init for write_data ...
PPPMDisp initialization ...
Generated 0 of 3 mixed pair_coeff terms from geometric mixing rule
  Coulomb G vector (1/distance)= 0.7475088155665069
  Coulomb grid = 720 288 24
  Coulomb stencil order = 5
  Coulomb estimated absolute RMS force accuracy = 0.00014904007
  Coulomb estimated relative force accuracy = 1.035026e-05
  using double precision FFTW3
  3d grid and FFT values/proc = 7649915 4976640
Generated 0 of 3 mixed pair_coeff terms from geometric mixing rule
Total wall time: 1:01:21
