LAMMPS (17 Apr 2024)
OMP_NUM_THREADS environment is not set. Defaulting to 1 thread. (src/comm.cpp:98)
  using 1 OpenMP thread(s) per MPI task
Open of file C:\Users\PanGroupWorkstation\Desktop\LAMMPS USER-REBOMOS Plugin 15Jun2023-MSMPI\rebomosplugin.so failed: 
Loaded 0 plugins from C:\Users\PanGroupWorkstation\Desktop\LAMMPS USER-REBOMOS Plugin 15Jun2023-MSMPI
Loaded 1 plugins from C:\Users\PanGroupWorkstation\AppData\Local\LAMMPS 64-bit 17Apr2024\plugins
# input file for producing initial structure

# initial settings
units metal
dimension 3
boundary p p p
atom_style charge
# atom_modify map array

# variable size equal 20         # model size
# variable latparam equal 3.50   # initial lattice parameter

<<<<<<< HEAD
# variables
variable latparam equal 3.945
variable scale equal sqrt(145)
variable nx equal 5
variable ny equal 1
variable nz equal 2

variable xmin equal 0
variable xmax equal "v_nx*v_scale*v_latparam"
variable ymin equal "-3*v_ny*v_scale*v_latparam"
variable ymax equal "v_ny*v_scale*v_latparam"
variable zmin equal 0
variable zmax equal "v_nz*v_latparam"

variable xcenter equal "(v_xmin+v_xmax)/2"
variable ycenter equal 0
variable zcenter equal "(v_zmin+v_zmax)/2"

variable disp_x equal "v_latparam*v_scale*0.0"
variable disp_z equal "v_latparam*0.0"
# print "${disp}"

region whole block ${xmin} ${xmax} ${ymin} ${ymax} ${zmin} ${zmax} units box
region whole block 0 ${xmax} ${ymin} ${ymax} ${zmin} ${zmax} units box
region whole block 0 237.520453066678 ${ymin} ${ymax} ${zmin} ${zmax} units box
region whole block 0 237.520453066678 -142.512271840007 ${ymax} ${zmin} ${zmax} units box
region whole block 0 237.520453066678 -142.512271840007 47.5040906133356 ${zmin} ${zmax} units box
region whole block 0 237.520453066678 -142.512271840007 47.5040906133356 0 ${zmax} units box
region whole block 0 237.520453066678 -142.512271840007 47.5040906133356 0 7.89 units box
create_box 3 whole
Created orthogonal box = (0 -142.51227 0) to (237.52045 47.504091 7.89)
  1 by 1 by 1 MPI processor grid

region lower block INF INF ${ymin} ${ycenter} INF INF units box
region lower block INF INF -142.512271840007 ${ycenter} INF INF units box
region lower block INF INF -142.512271840007 0 INF INF units box

lattice custom 1         orient x 200 -7 0 orient y 7 200 0 orient z 0 0 1         a1 ${latparam} 0 0 a2 0 ${latparam} 0 a3 0 0 ${latparam}         basis 0 0 0         basis 0.5 0.5 0.5         basis 0.0 0.5 0.5         basis 0.5 0.0 0.5         basis 0.5 0.5 0.0
lattice custom 1         orient x 200 -7 0 orient y 7 200 0 orient z 0 0 1         a1 3.945 0 0 a2 0 ${latparam} 0 a3 0 0 ${latparam}         basis 0 0 0         basis 0.5 0.5 0.5         basis 0.0 0.5 0.5         basis 0.5 0.0 0.5         basis 0.5 0.5 0.0
lattice custom 1         orient x 200 -7 0 orient y 7 200 0 orient z 0 0 1         a1 3.945 0 0 a2 0 3.945 0 a3 0 0 ${latparam}         basis 0 0 0         basis 0.5 0.5 0.5         basis 0.0 0.5 0.5         basis 0.5 0.0 0.5         basis 0.5 0.5 0.0
lattice custom 1         orient x 200 -7 0 orient y 7 200 0 orient z 0 0 1         a1 3.945 0 0 a2 0 3.945 0 a3 0 0 3.945         basis 0 0 0         basis 0.5 0.5 0.5         basis 0.0 0.5 0.5         basis 0.5 0.0 0.5         basis 0.5 0.5 0.0
Lattice spacing in x,y,z = 4.0805764 4.0805764 3.945

create_atoms 1 region lower                basis 1 1                basis 2 2                basis 3 3                basis 4 3                basis 5 3
Created 21754 atoms
  using lattice units in orthogonal box = (0 -142.51227 0) to (237.52045 47.504091 7.89)
  create_atoms CPU = 0.003 seconds

region upper block INF INF ${ycenter} ${ymax} INF INF units box
region upper block INF INF 0 ${ymax} INF INF units box
region upper block INF INF 0 47.5040906133356 INF INF units box

lattice custom 1         orient x 200 7 0 orient y -7 200 0 orient z 0 0 1         a1 ${latparam} 0 0 a2 0 ${latparam} 0 a3 0 0 ${latparam}         basis 0 0 0         basis 0.5 0.5 0.5         basis 0.0 0.5 0.5         basis 0.5 0.0 0.5         basis 0.5 0.5 0.0
lattice custom 1         orient x 200 7 0 orient y -7 200 0 orient z 0 0 1         a1 3.945 0 0 a2 0 ${latparam} 0 a3 0 0 ${latparam}         basis 0 0 0         basis 0.5 0.5 0.5         basis 0.0 0.5 0.5         basis 0.5 0.0 0.5         basis 0.5 0.5 0.0
lattice custom 1         orient x 200 7 0 orient y -7 200 0 orient z 0 0 1         a1 3.945 0 0 a2 0 3.945 0 a3 0 0 ${latparam}         basis 0 0 0         basis 0.5 0.5 0.5         basis 0.0 0.5 0.5         basis 0.5 0.0 0.5         basis 0.5 0.5 0.0
lattice custom 1         orient x 200 7 0 orient y -7 200 0 orient z 0 0 1         a1 3.945 0 0 a2 0 3.945 0 a3 0 0 3.945         basis 0 0 0         basis 0.5 0.5 0.5         basis 0.0 0.5 0.5         basis 0.5 0.0 0.5         basis 0.5 0.5 0.0
Lattice spacing in x,y,z = 4.0805764 4.0805764 3.945

create_atoms 1 region upper                basis 1 1                basis 2 2                basis 3 3                basis 4 3                basis 5 3
Created 7250 atoms
  using lattice units in orthogonal box = (0 -142.51227 0) to (237.52045 47.504091 7.89)
  create_atoms CPU = 0.001 seconds

=======
# lattice         fcc ${latparam}
# region          box block 0 ${size} 0 ${size} 0 ${size}
# create_box      3 box
# create_atoms    1 box
>>>>>>> fe98886a03245d7c7d24ab309ff62eb2703ee04e
# substitute one type of atom with another type of atom, can be used to create multi-components system

# variables
variable cutoff equal 1.25
variable angle equal 0.34

# read data
read_data  SrTiO3_0.5_0.txt #../../../initial_structure/additional_data/SrTiO3_2_0.34.data
Reading data file ...
  orthogonal box = (0 -142.51227 0) to (237.52045 47.504091 7.89)
  1 by 1 by 1 MPI processor grid
  reading atoms ...
  28700 atoms
  read_data CPU = 0.215 seconds

mass 1 87.62000000    # Sr
mass 2 47.86700000    # Ti
mass 3 15.99900000    # O

# set type 1 charge <Sr_charge>
# set type 2 charge <Ti_charge>
# set type 3 charge <O_charge>

# potential setting

variable lj_cut equal 2.50
variable coul_cut equal 4.50
variable morse_cut equal 4.50

pair_style hybrid/overlay lj/long/coul/long off long ${lj_cut} ${coul_cut} morse ${morse_cut}
pair_style hybrid/overlay lj/long/coul/long off long 2.5 ${coul_cut} morse ${morse_cut}
pair_style hybrid/overlay lj/long/coul/long off long 2.5 4.5 morse ${morse_cut}
pair_style hybrid/overlay lj/long/coul/long off long 2.5 4.5 morse 4.5
kspace_style pppm/disp 1e-5

# pair_coeff * * lj/long/coul/long 0.00 0
pair_coeff 1 3 lj/long/coul/long 0.75 1
pair_coeff 2 3 lj/long/coul/long 0.25 1
pair_coeff 3 3 lj/long/coul/long 5.50 1

pair_coeff * * morse 0.00 0.00 0.00
pair_coeff 1 3 morse 0.019623 1.886000 3.328330
pair_coeff 2 3 morse 0.024235 2.254703 2.708943
pair_coeff 3 3 morse 0.042395 1.379316 3.618701

# delete overlap atoms
#variable cutoff equal 1.8
#delete_atoms overlap ${cutoff} all all

compute peratom all pe/atom

variable tcharge equal charge(all)
print "total charge is now ${tcharge}"
total charge is now 1.01883080960266

# minimize energy
# minimize  1e-25 1e-25 20000 20000
thermo 100
thermo_style custom step temp lx ly lz pe pxx pyy pzz press vol

minimize 1e-25 1e-25 20000 20000
PPPMDisp initialization ...
WARNING: System is not charge neutral, net charge = 1.0188308 (src/kspace.cpp:327)
Generated 0 of 3 mixed pair_coeff terms from geometric mixing rule
  Coulomb G vector (1/distance)= 0.7465321884489938
  Coulomb grid = 720 576 24
  Coulomb stencil order = 5
  Coulomb estimated absolute RMS force accuracy = 0.0001546764
  Coulomb estimated relative force accuracy = 1.0741682e-05
  using double precision FFTW3
  3d grid and FFT values/proc = 15018395 9953280
Generated 0 of 3 mixed pair_coeff terms from geometric mixing rule
Neighbor list info ...
  update: every = 1 steps, delay = 0 steps, check = yes
  max neighbors/atom: 2000, page size: 100000
  master list distance cutoff = 6.5
  ghost atom cutoff = 6.5
  binsize = 3.25, bins = 74 59 3
  3 neighbor lists, perpetual/occasional/extra = 3 0 0
  (1) pair morse, perpetual
      attributes: half, newton on
      pair build: half/bin/atomonly/newton
      stencil: half/bin/3d
      bin: standard
  (2) pair lj/long/coul/long, perpetual, skip from (1)
      attributes: half, newton on
      pair build: skip
      stencil: none
      bin: none
  (3) pair morse, perpetual, copy from (1)
      attributes: half, newton on
      pair build: copy
      stencil: none
      bin: none
Per MPI rank memory allocation (min/avg/max) = 2343 | 2343 | 2343 Mbytes
   Step          Temp            Lx             Ly             Lz           PotEng          Pxx            Pyy            Pzz           Press          Volume    
         0   0              237.52045      190.01636      7.89          -312383.43      1251881.1      401274.34     -9855.3842      547766.69      356097.58    
       100   0              237.52045      190.01636      7.89          -347927.81      1467.1139     -804.43391     -4983.6004     -1440.3068      356097.58    
       200   0              237.52045      190.01636      7.89          -347971.5      -83.46193      -5102.8072     -6434.2271     -3873.4987      356097.58    
       214   0              237.52045      190.01636      7.89          -347972.48      8.6296674     -5049.069      -6359.381      -3799.9401      356097.58    
Loop time of 967.734 on 1 procs for 214 steps with 28700 atoms

99.6% CPU use with 1 MPI tasks x 1 OpenMP threads

Minimization stats:
  Stopping criterion = linesearch alpha is zero
  Energy initial, next-to-last, final = 
     -312383.434166002  -347972.478605293  -347972.478605293
  Force two-norm initial, final = 119385.42 1.7560765
  Force max component initial, final = 33842.804 0.42306378
  Final line search alpha, max atom move = 3.1708235e-09 1.3414606e-09
  Iterations, force evaluations = 214 431

MPI task timing breakdown:
Section |  min time  |  avg time  |  max time  |%varavg| %total
---------------------------------------------------------------
Pair    | 20.94      | 20.94      | 20.94      |   0.0 |  2.16
Kspace  | 945.84     | 945.84     | 945.84     |   0.0 | 97.74
Neigh   | 0.33335    | 0.33335    | 0.33335    |   0.0 |  0.03
Comm    | 0.24616    | 0.24616    | 0.24616    |   0.0 |  0.03
Output  | 0.001752   | 0.001752   | 0.001752   |   0.0 |  0.00
Modify  | 0          | 0          | 0          |   0.0 |  0.00
Other   |            | 0.3714     |            |       |  0.04

Nlocal:          28700 ave       28700 max       28700 min
Histogram: 1 0 0 0 0 0 0 0 0 0
Nghost:          61085 ave       61085 max       61085 min
Histogram: 1 0 0 0 0 0 0 0 0 0
Neighs:    1.34219e+06 ave 1.34219e+06 max 1.34219e+06 min
Histogram: 1 0 0 0 0 0 0 0 0 0

Total # of neighbors = 1342192
Ave neighs/atom = 46.766272
Neighbor list builds = 7
Dangerous builds = 0

# relax box
reset_timestep 0
fix 1 all box/relax aniso 0.0 vmax 0.001
# fix 1 all box/relax aniso 0.0 vmax 0.001 fixedpoint 0 0 0
# fix 1 all box/relax y 0.0 vmax 0.001
#dump 1 all custom 20000 SrTiO3_min.dump.* id type q x y z c_peratom
#dump_modify 1 sort id
min_style cg
minimize  1e-25 1e-25 20000 20000
PPPMDisp initialization ...
Generated 0 of 3 mixed pair_coeff terms from geometric mixing rule
  Coulomb G vector (1/distance)= 0.7465321884490163
  Coulomb grid = 720 576 24
  Coulomb stencil order = 5
  Coulomb estimated absolute RMS force accuracy = 0.00015467637
  Coulomb estimated relative force accuracy = 1.0741679e-05
  using double precision FFTW3
  3d grid and FFT values/proc = 15018395 9953280
Generated 0 of 3 mixed pair_coeff terms from geometric mixing rule
WARNING: Energy due to 3 extra global DOFs will be included in minimizer energies
 (src/min.cpp:219)
Per MPI rank memory allocation (min/avg/max) = 2344 | 2344 | 2344 Mbytes
   Step          Temp            Lx             Ly             Lz           PotEng          Pxx            Pyy            Pzz           Press          Volume    
         0   0              237.52045      190.01636      7.89          -347972.48      8.6296674     -5049.069      -6359.381      -3799.9401      356097.58    
        15   0              237.73288      189.73762      7.8738223     -347975.5       2158.3086     -238.3414      -767.19173      384.25849      355163.48    
Loop time of 996.21 on 1 procs for 15 steps with 28700 atoms

99.7% CPU use with 1 MPI tasks x 1 OpenMP threads

Minimization stats:
  Stopping criterion = linesearch alpha is zero
  Energy initial, next-to-last, final = 
     -347972.478605293  -347975.500243389  -347975.500243389
  Force two-norm initial, final = 1804.7479 510.24077
  Force max component initial, final = 1413.4274 478.01689
  Final line search alpha, max atom move = 3.1172876e-14 1.4901161e-11
  Iterations, force evaluations = 15 199

MPI task timing breakdown:
Section |  min time  |  avg time  |  max time  |%varavg| %total
---------------------------------------------------------------
Pair    | 9.3837     | 9.3837     | 9.3837     |   0.0 |  0.94
Kspace  | 447.38     | 447.38     | 447.38     |   0.0 | 44.91
Neigh   | 0          | 0          | 0          |   0.0 |  0.00
Comm    | 0.11346    | 0.11346    | 0.11346    |   0.0 |  0.01
Output  | 0          | 0          | 0          |   0.0 |  0.00
Modify  | 0          | 0          | 0          |   0.0 |  0.00
Other   |            | 539.3      |            |       | 54.14

Nlocal:          28700 ave       28700 max       28700 min
Histogram: 1 0 0 0 0 0 0 0 0 0
Nghost:          61062 ave       61062 max       61062 min
Histogram: 1 0 0 0 0 0 0 0 0 0
Neighs:    1.34228e+06 ave 1.34228e+06 max 1.34228e+06 min
Histogram: 1 0 0 0 0 0 0 0 0 0

Total # of neighbors = 1342278
Ave neighs/atom = 46.769268
Neighbor list builds = 0
Dangerous builds = 0

write_data SrTiO3_relaxed_${cutoff}_${angle}.data nocoeff
write_data SrTiO3_relaxed_1.25_${angle}.data nocoeff
write_data SrTiO3_relaxed_1.25_0.34.data nocoeff
System init for write_data ...
PPPMDisp initialization ...
Generated 0 of 3 mixed pair_coeff terms from geometric mixing rule
  Coulomb G vector (1/distance)= 0.746896108271407
  Coulomb grid = 720 576 24
  Coulomb stencil order = 5
  Coulomb estimated absolute RMS force accuracy = 0.00015386777
  Coulomb estimated relative force accuracy = 1.0685526e-05
  using double precision FFTW3
  3d grid and FFT values/proc = 15018395 9953280
Generated 0 of 3 mixed pair_coeff terms from geometric mixing rule
Total wall time: 2:14:56
