LAMMPS data file via write_data, version 19 Nov 2024, timestep = 0, units =.1 metal
              
13858 atoms             
3 atom types            
              
0 237.520453066678 xlo xhi           
-47.5040906133356 47.5040906133356 ylo yhi           
0 7.89 zlo zhi           
              
Masses              
              
1 87.62             
2 47.867             
3 15.999             
              
Atoms # charge            
              
1 2 2.40031163401206 173.36535871743155 -23.47027737314427 1.9725 0 0 0      
2 3 -1.1998439308046 173.36535871743155 -23.47027737314427 0.0 0 0 0      
3 2 2.40031163401206 177.30794462265482 -23.332286866461452 1.9725 0 0 0      
4 3 -1.1998439308046 175.33665167004318 -23.401282119802858 1.9725 0 0 0      
5 3 -1.1998439308046 177.30794462265482 -23.332286866461452 0.0 0 0 0      
6 2 2.40031163401206 181.2505305278781 -23.19429635977864 1.9725 0 0 0      
7 3 -1.1998439308046 179.27923757526645 -23.26329161312004 1.9725 0 0 0      
8 3 -1.1998439308046 181.2505305278781 -23.19429635977864 0.0 0 0 0      
9 2 2.40031163401206 185.1931164331015 -23.056305853095814 1.9725 0 0 0      
10 3 -1.1998439308046 183.22182348048975 -23.125301106437227 1.9725 0 0 0      
11 3 -1.1998439308046 185.1931164331015 -23.056305853095814 0.0 0 0 0      
12 2 2.40031163401206 189.13570233832476 -22.918315346413003 1.9725 0 0 0      
13 3 -1.1998439308046 187.1644093857131 -22.98731059975441 1.9725 0 0 0      
14 3 -1.1998439308046 189.13570233832476 -22.918315346413003 0.0 0 0 0      
15 2 2.40031163401206 193.078288243548 -22.780324839730184 1.9725 0 0 0      
16 3 -1.1998439308046 191.1069952909364 -22.84932009307159 1.9725 0 0 0      
17 3 -1.1998439308046 193.078288243548 -22.780324839730184 0.0 0 0 0      
18 2 2.40031163401206 197.02087414877133 -22.642334333047373 1.9725 0 0 0      
19 3 -1.1998439308046 195.04958119615964 -22.71132958638878 1.9725 0 0 0      
20 3 -1.1998439308046 197.02087414877133 -22.642334333047373 0.0 0 0 0      
21 2 2.40031163401206 200.96346005399465 -22.504343826364554 1.9725 0 0 0      
22 3 -1.1998439308046 198.99216710138305 -22.57333907970596 1.9725 0 0 0      
23 3 -1.1998439308046 200.96346005399465 -22.504343826364554 0.0 0 0 0      
24 2 2.40031163401206 204.90604595921792 -22.366353319681743 1.9725 0 0 0      
25 3 -1.1998439308046 202.9347530066063 -22.43534857302315 1.9725 0 0 0      
26 3 -1.1998439308046 204.90604595921792 -22.366353319681743 0.0 0 0 0      
27 2 2.40031163401206 208.8486318644412 -22.228362812998924 1.9725 0 0 0      
28 3 -1.1998439308046 206.87733891182955 -22.29735806634033 1.9725 0 0 0      
29 3 -1.1998439308046 208.8486318644412 -22.228362812998924 0.0 0 0 0      
30 2 2.40031163401206 212.79121776966457 -22.090372306316105 1.9725 0 0 0      
31 3 -1.1998439308046 210.8199248170528 -22.159367559657518 1.9725 0 0 0      
32 3 -1.1998439308046 212.79121776966457 -22.090372306316105 0.0 0 0 0      
33 2 2.40031163401206 216.73380367488784 -21.952381799633294 1.9725 0 0 0      
34 3 -1.1998439308046 214.7625107222762 -22.0213770529747 1.9725 0 0 0      
35 3 -1.1998439308046 216.73380367488784 -21.952381799633294 0.0 0 0 0      
36 2 2.40031163401206 220.6763895801111 -21.814391292950475 1.9725 0 0 0      
37 3 -1.1998439308046 218.70509662749947 -21.883386546291888 1.9725 0 0 0      
38 3 -1.1998439308046 220.6763895801111 -21.814391292950475 0.0 0 0 0      
39 2 2.40031163401206 224.6189754853344 -21.676400786267664 1.9725 0 0 0      
40 3 -1.1998439308046 222.64768253272277 -21.74539603960907 1.9725 0 0 0      
41 3 -1.1998439308046 224.6189754853344 -21.676400786267664 0.0 0 0 0      
42 3 -1.1998439308046 236.44673320100432 -26.24166134711639 3.945 0 0 0      
43 2 2.40031163401206 228.5615613905577 -21.538410279584845 1.9725 0 0 0      
44 3 -1.1998439308046 226.5902684379461 -21.607405532926258 1.9725 0 0 0      
45 3 -1.1998439308046 236.3777379476629 -28.212954299728054 5.917499999999999 0 0 0      
46 3 -1.1998439308046 228.5615613905577 -21.538410279584845 0.0 0 0 0      
47 1 1.20041594454073 230.6018495965108 -23.440707978855087 0.0 0 0 0      
48 2 2.40031163401206 232.50414729578105 -21.40041977290204 1.9725 0 0 0      
49 3 -1.1998439308046 230.53285434316936 -21.46941502624344 1.9725 0 0 0      
50 3 -1.1998439308046 232.5731425491224 -23.37171272551368 1.9725 0 0 0      
51 3 -1.1998439308046 232.50414729578105 -21.40041977290204 0.0 0 0 0      
52 1 1.20041594454073 234.54443550173409 -23.30271747217227 0.0 0 0 0      
53 2 2.40031163401206 236.44673320100432 -21.262429266219215 1.9725 0 0 0      
54 3 -1.1998439308046 234.47544024839263 -21.33142451956062 1.9725 0 0 0      
55 3 -1.1998439308046 236.5157284543457 -23.233722218830863 1.9725 0 0 0      
56 3 -1.1998439308046 236.44673320100432 -21.262429266219215 0.0 0 0 0      
57 3 -1.1998439308046 234.47544024839263 -26.172666093774993 5.917499999999999 0 0 0      
58 2 2.40031163401206 236.44673320100432 -26.24166134711639 5.917499999999999 0 0 0      
59 1 1.20041594454073 234.40644499505123 -28.143959046386627 3.945 0 0 0      
60 3 -1.1998439308046 232.50414729578105 -26.103670840433566 3.945 0 0 0      
61 3 -1.1998439308046 232.4351520424396 -28.074963793045228 5.917499999999999 0 0 0      
62 3 -1.1998439308046 230.53285434316936 -26.034675587092167 5.917499999999999 0 0 0      
63 2 2.40031163401206 62.83496286449633 -23.391425655039797 1.9725 0 0 0      
64 3 -1.1998439308046 60.8636699118847 -23.46042090838121 1.9725 0 0 0      
65 3 -1.1998439308046 62.83496286449633 -23.391425655039797 0.0 0 0 0      
66 2 2.40031163401206 66.77754876971966 -23.253435148356985 1.9725 0 0 0      
67 3 -1.1998439308046 64.80625581710797 -23.32243040169839 1.9725 0 0 0      
68 3 -1.1998439308046 66.77754876971966 -23.253435148356985 0.0 0 0 0      
69 2 2.40031163401206 70.72013467494293 -23.115444641674166 1.9725 0 0 0      
70 3 -1.1998439308046 68.74884172233129 -23.18443989501558 1.9725 0 0 0      
71 3 -1.1998439308046 70.72013467494293 -23.115444641674166 0.0 0 0 0      
72 2 2.40031163401206 74.66272058016625 -22.977454134991355 1.9725 0 0 0      
73 3 -1.1998439308046 72.69142762755456 -23.046449388332753 1.9725 0 0 0      
74 3 -1.1998439308046 74.66272058016625 -22.977454134991355 0.0 0 0 0      
75 2 2.40031163401206 78.60530648538952 -22.839463628308536 1.9725 0 0 0      
76 3 -1.1998439308046 76.63401353277789 -22.90845888164995 1.9725 0 0 0      
77 3 -1.1998439308046 78.60530648538952 -22.839463628308536 0.0 0 0 0      
78 2 2.40031163401206 82.54789239061284 -22.701473121625725 1.9725 0 0 0      
79 3 -1.1998439308046 80.57659943800115 -22.77046837496713 1.9725 0 0 0      
80 3 -1.1998439308046 82.54789239061284 -22.701473121625725 0.0 0 0 0      
81 2 2.40031163401206 86.49047829583611 -22.563482614942906 1.9725 0 0 0      
82 3 -1.1998439308046 84.51918534322448 -22.63247786828432 1.9725 0 0 0      
83 3 -1.1998439308046 86.49047829583611 -22.563482614942906 0.0 0 0 0      
84 2 2.40031163401206 90.43306420105944 -22.425492108260094 1.9725 0 0 0      
85 3 -1.1998439308046 88.46177124844775 -22.4944873616015 1.9725 0 0 0      
86 3 -1.1998439308046 90.43306420105944 -22.425492108260094 0.0 0 0 0      
87 2 2.40031163401206 94.3756501062827 -22.287501601577276 1.9725 0 0 0      
88 3 -1.1998439308046 92.40435715367109 -22.35649685491868 1.9725 0 0 0      
89 3 -1.1998439308046 94.3756501062827 -22.287501601577276 0.0 0 0 0      
90 2 2.40031163401206 98.31823601150604 -22.149511094894457 1.9725 0 0 0      
91 3 -1.1998439308046 96.3469430588944 -22.21850634823587 1.9725 0 0 0      
92 3 -1.1998439308046 98.31823601150604 -22.149511094894457 0.0 0 0 0      
93 2 2.40031163401206 102.2608219167293 -22.011520588211646 1.9725 0 0 0      
94 3 -1.1998439308046 100.28952896411766 -22.080515841553044 1.9725 0 0 0      
95 3 -1.1998439308046 102.2608219167293 -22.011520588211646 0.0 0 0 0      
96 2 2.40031163401206 106.20340782195262 -21.873530081528827 1.9725 0 0 0      
97 3 -1.1998439308046 104.23211486934092 -21.94252533487024 1.9725 0 0 0      
98 3 -1.1998439308046 106.20340782195262 -21.873530081528827 0.0 0 0 0      
99 2 2.40031163401206 110.14599372717596 -21.735539574846015 1.9725 0 0 0      
100 3 -1.1998439308046 108.17470077456426 -21.804534828187414 1.9725 0 0 0      
101 2 2.40031163401206 232.50414729578105 -26.103670840433566 5.917499999999999 0 0 0      
102 3 -1.1998439308046 110.14599372717596 -21.735539574846015 0.0 0 0 0      
103 1 1.20041594454073 230.46385908982796 -28.00596853970383 3.945 0 0 0      
104 2 2.40031163401206 114.08857963239922 -21.597549068163197 1.9725 0 0 0      
105 3 -1.1998439308046 112.11728667978758 -21.66654432150461 1.9725 0 0 0      
106 3 -1.1998439308046 228.5615613905577 -25.96568033375077 3.945 0 0 0      
107 3 -1.1998439308046 114.08857963239922 -21.597549068163197 0.0 0 0 0      
108 1 1.20041594454073 116.12886783835228 -23.49984676743344 0.0 0 0 0      
109 2 2.40031163401206 118.03116553762248 -21.459558561480385 1.9725 0 0 0      
110 3 -1.1998439308046 116.05987258501084 -21.528553814821798 1.9725 0 0 0      
111 3 -1.1998439308046 118.10016079096393 -23.430851514092026 1.9725 0 0 0      
112 3 -1.1998439308046 118.03116553762248 -21.459558561480385 0.0 0 0 0      
113 1 1.20041594454073 120.07145374357556 -23.361856260750614 0.0 0 0 0      
114 2 2.40031163401206 121.9737514428458 -21.321568054797567 1.9725 0 0 0      
115 3 -1.1998439308046 120.00245849023418 -21.390563308138972 1.9725 0 0 0      
116 3 -1.1998439308046 122.04274669618724 -23.292861007409208 1.9725 0 0 0      
117 3 -1.1998439308046 121.9737514428458 -21.321568054797567 0.0 0 0 0      
118 1 1.20041594454073 124.01403964879889 -23.223865754067802 0.0 0 0 0      
119 2 2.40031163401206 125.91633734806912 -21.183577548114755 1.9725 0 0 0      
120 3 -1.1998439308046 123.9450443954575 -21.252572801456168 1.9725 0 0 0      
121 3 -1.1998439308046 125.98533260141056 -23.154870500726396 1.9725 0 0 0      
122 3 -1.1998439308046 125.91633734806912 -21.183577548114755 0.0 0 0 0      
123 1 1.20041594454073 127.9566255540222 -23.08587524738499 0.0 0 0 0      
124 2 2.40031163401206 129.8589232532924 -21.045587041431936 1.9725 0 0 0      
125 3 -1.1998439308046 127.88763030068075 -21.114582294773342 1.9725 0 0 0      
126 3 -1.1998439308046 129.92791850663383 -23.016879994043578 1.9725 0 0 0      
127 3 -1.1998439308046 129.8589232532924 -21.045587041431936 0.0 0 0 0      
128 1 1.20041594454073 131.89921145924546 -22.94788474070217 0.0 0 0 0      
129 2 2.40031163401206 133.80150915851573 -20.907596534749125 1.9725 0 0 0      
130 3 -1.1998439308046 131.83021620590404 -20.97659178809053 1.9725 0 0 0      
131 3 -1.1998439308046 133.8705044118571 -22.87888948736076 1.9725 0 0 0      
132 3 -1.1998439308046 133.80150915851573 -20.907596534749125 0.0 0 0 0      
133 1 1.20041594454073 135.84179736446873 -22.80989423401936 0.0 0 0 0      
134 2 2.40031163401206 137.744095063739 -20.769606028066306 1.9725 0 0 0      
135 3 -1.1998439308046 135.77280211112736 -20.83860128140772 1.9725 0 0 0      
136 3 -1.1998439308046 137.81309031708037 -22.740898980677947 1.9725 0 0 0      
137 3 -1.1998439308046 137.744095063739 -20.769606028066306 0.0 0 0 0      
138 1 1.20041594454073 139.78438326969206 -22.67190372733654 0.0 0 0 0      
139 2 2.40031163401206 141.68668096896232 -20.631615521383488 1.9725 0 0 0      
140 3 -1.1998439308046 139.7153880163507 -20.7006107747249 1.9725 0 0 0      
141 3 -1.1998439308046 141.7556762223037 -22.60290847399513 1.9725 0 0 0      
142 3 -1.1998439308046 141.68668096896232 -20.631615521383488 0.0 0 0 0      
143 1 1.20041594454073 143.72696917491538 -22.533913220653723 0.0 0 0 0      
144 2 2.40031163401206 145.6292668741856 -20.493625014700676 1.9725 0 0 0      
145 3 -1.1998439308046 143.65797392157396 -20.56262026804208 1.9725 0 0 0      
146 3 -1.1998439308046 145.69826212752702 -22.464917967312317 1.9725 0 0 0      
147 3 -1.1998439308046 145.6292668741856 -20.493625014700676 0.0 0 0 0      
148 1 1.20041594454073 147.66955508013865 -22.39592271397092 0.0 0 0 0      
149 2 2.40031163401206 149.5718527794089 -20.355634508017857 1.9725 0 0 0      
150 3 -1.1998439308046 147.60055982679728 -20.424629761359263 1.9725 0 0 0      
151 3 -1.1998439308046 149.64084803275028 -22.3269274606295 1.9725 0 0 0      
152 3 -1.1998439308046 149.5718527794089 -20.355634508017857 0.0 0 0 0      
153 1 1.20041594454073 151.61214098536192 -22.257932207288093 0.0 0 0 0      
154 2 2.40031163401206 153.51443868463224 -20.217644001335046 1.9725 0 0 0      
155 3 -1.1998439308046 151.54314573202055 -20.28663925467645 1.9725 0 0 0      
156 3 -1.1998439308046 153.5834339379736 -22.188936953946687 1.9725 0 0 0      
157 3 -1.1998439308046 153.51443868463224 -20.217644001335046 0.0 0 0 0      
158 1 1.20041594454073 155.55472689058524 -22.119941700605274 0.0 0 0 0      
159 2 2.40031163401206 157.4570245898555 -20.079653494652227 1.9725 0 0 0      
160 3 -1.1998439308046 155.48573163724387 -20.14864874799364 1.9725 0 0 0      
161 3 -1.1998439308046 157.5260198431969 -22.05094644726387 1.9725 0 0 0      
162 3 -1.1998439308046 157.4570245898555 -20.079653494652227 0.0 0 0 0      
163 1 1.20041594454073 159.49731279580857 -21.981951193922463 0.0 0 0 0      
164 2 2.40031163401206 161.39961049507878 -19.941662987969416 1.9725 0 0 0      
165 3 -1.1998439308046 159.42831754246714 -20.01065824131082 1.9725 0 0 0      
166 3 -1.1998439308046 161.4686057484202 -21.912955940581057 1.9725 0 0 0      
167 3 -1.1998439308046 161.39961049507878 -19.941662987969416 0.0 0 0 0      
168 1 1.20041594454073 163.43989870103184 -21.843960687239644 0.0 0 0 0      
169 2 2.40031163401206 165.3421964003021 -19.803672481286597 1.9725 0 0 0      
170 3 -1.1998439308046 163.37090344769047 -19.872667734628003 1.9725 0 0 0      
171 3 -1.1998439308046 165.41119165364347 -21.774965433898238 1.9725 0 0 0      
172 3 -1.1998439308046 165.3421964003021 -19.803672481286597 0.0 0 0 0      
173 1 1.20041594454073 167.38248460625516 -21.70597018055684 0.0 0 0 0      
174 2 2.40031163401206 169.28478230552545 -19.66568197460378 1.9725 0 0 0      
175 3 -1.1998439308046 167.3134893529138 -19.73467722794519 1.9725 0 0 0      
176 3 -1.1998439308046 169.3537775588668 -21.636974927215427 1.9725 0 0 0      
177 3 -1.1998439308046 169.28478230552545 -19.66568197460378 0.0 0 0 0      
178 1 1.20041594454073 171.3250705114785 -21.567979673874014 0.0 0 0 0      
179 2 2.40031163401206 173.2273682107487 -19.527691467920967 1.9725 0 0 0      
180 3 -1.1998439308046 171.25607525813706 -19.596686721262373 1.9725 0 0 0      
181 3 -1.1998439308046 173.29636346409012 -21.498984420532608 1.9725 0 0 0      
182 3 -1.1998439308046 173.2273682107487 -19.527691467920967 0.0 0 0 0      
183 1 1.20041594454073 175.26765641670175 -21.429989167191202 0.0 0 0 0      
184 2 2.40031163401206 177.16995411597196 -19.389700961238155 1.9725 0 0 0      
185 3 -1.1998439308046 175.19866116336033 -19.458696214579554 1.9725 0 0 0      
186 3 -1.1998439308046 177.2389493693134 -21.36099391384979 1.9725 0 0 0      
187 3 -1.1998439308046 177.16995411597196 -19.389700961238155 0.0 0 0 0      
188 1 1.20041594454073 179.21024232192502 -21.291998660508384 0.0 0 0 0      
189 2 2.40031163401206 181.11254002119531 -19.251710454555337 1.9725 0 0 0      
190 3 -1.1998439308046 179.14124706858365 -19.32070570789675 1.9725 0 0 0      
191 3 -1.1998439308046 181.1815352745367 -21.223003407166978 1.9725 0 0 0      
192 3 -1.1998439308046 181.11254002119531 -19.251710454555337 0.0 0 0 0      
193 1 1.20041594454073 183.15282822714835 -21.154008153825565 0.0 0 0 0      
194 2 2.40031163401206 185.0551259264186 -19.113719947872518 1.9725 0 0 0      
195 3 -1.1998439308046 183.08383297380695 -19.182715201213924 1.9725 0 0 0      
196 3 -1.1998439308046 185.12412117976004 -21.08501290048416 1.9725 0 0 0      
197 3 -1.1998439308046 185.0551259264186 -19.113719947872518 0.0 0 0 0      
198 1 1.20041594454073 187.09541413237167 -21.01601764714276 0.0 0 0 0      
199 2 2.40031163401206 188.99771183164188 -18.975729441189706 1.9725 0 0 0      
200 3 -1.1998439308046 187.02641887903025 -19.04472469453112 1.9725 0 0 0      
201 3 -1.1998439308046 189.0667070849833 -20.947022393801348 1.9725 0 0 0      
202 3 -1.1998439308046 188.99771183164188 -18.975729441189706 0.0 0 0 0      
203 1 1.20041594454073 191.0380000375949 -20.87802714045995 0.0 0 0 0      
204 2 2.40031163401206 192.94029773686515 -18.837738934506888 1.9725 0 0 0      
205 3 -1.1998439308046 190.9690047842535 -18.906734187848294 1.9725 0 0 0      
206 3 -1.1998439308046 193.00929299020655 -20.80903188711853 1.9725 0 0 0      
207 3 -1.1998439308046 192.94029773686515 -18.837738934506888 0.0 0 0 0      
208 1 1.20041594454073 194.9805859428182 -20.740036633777123 0.0 0 0 0      
209 2 2.40031163401206 196.88288364208853 -18.699748427824076 1.9725 0 0 0      
210 3 -1.1998439308046 194.91159068947684 -18.768743681165482 1.9725 0 0 0      
211 3 -1.1998439308046 196.9518788954299 -20.671041380435717 1.9725 0 0 0      
212 3 -1.1998439308046 196.88288364208853 -18.699748427824076 0.0 0 0 0      
213 1 1.20041594454073 198.9231718480416 -20.602046127094304 0.0 0 0 0      
214 2 2.40031163401206 200.8254695473118 -18.561757921141258 1.9725 0 0 0      
215 3 -1.1998439308046 198.85417659470016 -18.63075317448267 1.9725 0 0 0      
216 3 -1.1998439308046 200.8944648006532 -20.5330508737529 1.9725 0 0 0      
217 3 -1.1998439308046 200.8254695473118 -18.561757921141258 0.0 0 0 0      
218 1 1.20041594454073 202.8657577532649 -20.464055620411493 0.0 0 0 0      
219 2 2.40031163401206 204.76805545253507 -18.423767414458446 1.9725 0 0 0      
220 3 -1.1998439308046 202.79676249992343 -18.492762667799852 1.9725 0 0 0      
221 3 -1.1998439308046 204.8370507058765 -20.39506036707008 1.9725 0 0 0      
222 3 -1.1998439308046 204.76805545253507 -18.423767414458446 0.0 0 0 0      
223 1 1.20041594454073 206.80834365848813 -20.326065113728674 0.0 0 0 0      
224 2 2.40031163401206 208.7106413577584 -18.285776907775627 1.9725 0 0 0      
225 3 -1.1998439308046 206.7393484051467 -18.35477216111704 1.9725 0 0 0      
226 3 -1.1998439308046 208.77963661109976 -20.25706986038727 1.9725 0 0 0      
227 3 -1.1998439308046 208.7106413577584 -18.285776907775627 0.0 0 0 0      
228 1 1.20041594454073 210.7509295637114 -20.18807460704587 0.0 0 0 0      
229 2 2.40031163401206 212.6532272629817 -18.14778640109281 1.9725 0 0 0      
230 3 -1.1998439308046 210.68193431037 -18.21678165443422 1.9725 0 0 0      
231 3 -1.1998439308046 212.72222251632317 -20.11907935370445 1.9725 0 0 0      
232 3 -1.1998439308046 212.6532272629817 -18.14778640109281 0.0 0 0 0      
233 1 1.20041594454073 214.6935154689348 -20.050084100363044 0.0 0 0 0      
234 2 2.40031163401206 216.59581316820496 -18.009795894409997 1.9725 0 0 0      
235 3 -1.1998439308046 214.62452021559332 -18.078791147751403 1.9725 0 0 0      
236 3 -1.1998439308046 216.6648084215464 -19.98108884702164 1.9725 0 0 0      
237 3 -1.1998439308046 216.59581316820496 -18.009795894409997 0.0 0 0 0      
238 1 1.20041594454073 218.63610137415805 -19.91209359368024 0.0 0 0 0      
239 2 2.40031163401206 220.53839907342825 -17.87180538772718 1.9725 0 0 0      
240 3 -1.1998439308046 218.56710612081665 -17.9408006410686 1.9725 0 0 0      
241 3 -1.1998439308046 220.60739432676968 -19.84309834033882 1.9725 0 0 0      
242 3 -1.1998439308046 220.53839907342825 -17.87180538772718 0.0 0 0 0      
243 1 1.20041594454073 222.5786872793813 -19.774103086997414 0.0 0 0 0      
244 2 2.40031163401206 224.4809849786516 -17.733814881044367 1.9725 0 0 0      
245 3 -1.1998439308046 222.50969202603997 -17.802810134385773 1.9725 0 0 0      
246 3 -1.1998439308046 224.54998023199292 -19.705107833656008 1.9725 0 0 0      
247 3 -1.1998439308046 224.4809849786516 -17.733814881044367 0.0 0 0 0      
248 1 1.20041594454073 226.52127318460464 -19.636112580314595 0.0 0 0 0      
249 2 2.40031163401206 228.4235708838749 -17.59582437436155 1.9725 0 0 0      
250 3 -1.1998439308046 226.45227793126327 -17.66481962770297 1.9725 0 0 0      
251 3 -1.1998439308046 228.49256613721627 -19.56711732697319 1.9725 0 0 0      
252 3 -1.1998439308046 228.4235708838749 -17.59582437436155 0.0 0 0 0      
253 1 1.20041594454073 230.46385908982796 -19.498122073631784 0.0 0 0 0      
254 2 2.40031163401206 232.3661567890982 -17.457833867678737 1.9725 0 0 0      
255 3 -1.1998439308046 230.3948638364865 -17.526829121020143 1.9725 0 0 0      
256 3 -1.1998439308046 232.4351520424396 -19.42912682029037 1.9725 0 0 0      
257 3 -1.1998439308046 232.3661567890982 -17.457833867678737 0.0 0 0 0      
258 1 1.20041594454073 234.40644499505123 -19.360131566948965 0.0 0 0 0      
259 2 2.40031163401206 236.3087426943215 -17.319843360995918 1.9725 0 0 0      
260 3 -1.1998439308046 234.33744974170983 -17.388838614337324 1.9725 0 0 0      
261 3 -1.1998439308046 236.3777379476629 -19.29113631360756 1.9725 0 0 0      
262 3 -1.1998439308046 236.3087426943215 -17.319843360995918 0.0 0 0 0      
263 3 -1.1998439308046 228.49256613721627 -27.936973286362402 5.917499999999999 0 0 0      
264 2 2.40031163401206 3.5581837794640023 -21.51869735005873 1.9725 0 0 0      
265 3 -1.1998439308046 1.5868908268523685 -21.587692603400136 1.9725 0 0 0      
266 3 -1.1998439308046 3.627179032805429 -23.48999030267038 1.9725 0 0 0      
267 3 -1.1998439308046 3.5581837794640023 -21.51869735005873 0.0 0 0 0      
268 1 1.20041594454073 5.598471985417064 -23.420995049328965 0.0 0 0 0      
269 2 2.40031163401206 7.500769684687327 -21.38070684337591 1.9725 0 0 0      
270 3 -1.1998439308046 5.529476732075693 -21.449702096717317 1.9725 0 0 0      
271 3 -1.1998439308046 7.569764938028754 -23.35199979598756 1.9725 0 0 0      
272 3 -1.1998439308046 7.500769684687327 -21.38070684337591 0.0 0 0 0      
273 1 1.20041594454073 9.541057890640388 -23.283004542646154 0.0 0 0 0      
274 2 2.40031163401206 11.443355589910595 -21.2427163366931 1.9725 0 0 0      
275 3 -1.1998439308046 9.47206263729896 -21.311711590034506 1.9725 0 0 0      
276 3 -1.1998439308046 11.512350843252024 -23.214009289304748 1.9725 0 0 0      
277 3 -1.1998439308046 11.443355589910595 -21.2427163366931 0.0 0 0 0      
278 1 1.20041594454073 13.483643795863657 -23.145014035963335 0.0 0 0 0      
279 2 2.40031163401206 15.38594149513392 -21.104725830010274 1.9725 0 0 0      
280 3 -1.1998439308046 13.414648542522286 -21.173721083351687 1.9725 0 0 0      
281 3 -1.1998439308046 15.454936748475347 -23.07601878262193 1.9725 0 0 0      
282 3 -1.1998439308046 15.38594149513392 -21.104725830010274 0.0 0 0 0      
283 1 1.20041594454073 17.42622970108698 -23.007023529280524 0.0 0 0 0      
284 2 2.40031163401206 19.328527400357245 -20.96673532332747 1.9725 0 0 0      
285 3 -1.1998439308046 17.357234447745554 -21.035730576668875 1.9725 0 0 0      
286 3 -1.1998439308046 19.397522653698616 -22.938028275939118 1.9725 0 0 0      
287 3 -1.1998439308046 19.328527400357245 -20.96673532332747 0.0 0 0 0      
288 1 1.20041594454073 21.368815606310307 -22.869033022597705 0.0 0 0 0      
289 2 2.40031163401206 23.271113305580517 -20.828744816644644 1.9725 0 0 0      
290 3 -1.1998439308046 21.29982035296888 -20.897740069986057 1.9725 0 0 0      
291 3 -1.1998439308046 23.34010855892194 -22.8000377692563 1.9725 0 0 0      
292 3 -1.1998439308046 23.271113305580517 -20.828744816644644 0.0 0 0 0      
293 1 1.20041594454073 25.31140151153357 -22.731042515914893 0.0 0 0 0      
294 2 2.40031163401206 27.21369921080384 -20.69075430996184 1.9725 0 0 0      
295 3 -1.1998439308046 25.242406258192148 -20.759749563303245 1.9725 0 0 0      
296 3 -1.1998439308046 27.28269446414521 -22.662047262573473 1.9725 0 0 0      
297 3 -1.1998439308046 27.21369921080384 -20.69075430996184 0.0 0 0 0      
298 1 1.20041594454073 29.2539874167569 -22.593052009232075 0.0 0 0 0      
299 2 2.40031163401206 31.156285116027107 -20.552763803279014 1.9725 0 0 0      
300 3 -1.1998439308046 29.184992163415476 -20.621759056620427 1.9725 0 0 0      
301 3 -1.1998439308046 31.225280369368534 -22.52405675589067 1.9725 0 0 0      
302 3 -1.1998439308046 31.156285116027107 -20.552763803279014 0.0 0 0 0      
303 1 1.20041594454073 33.19657332198017 -22.455061502549263 0.0 0 0 0      
304 2 2.40031163401206 35.09887102125043 -20.414773296596202 1.9725 0 0 0      
305 3 -1.1998439308046 33.1275780686388 -20.483768549937615 1.9725 0 0 0      
306 3 -1.1998439308046 35.16786627459186 -22.38606624920785 1.9725 0 0 0      
307 3 -1.1998439308046 35.09887102125043 -20.414773296596202 0.0 0 0 0      
308 1 1.20041594454073 37.13915922720349 -22.317070995866445 0.0 0 0 0      
309 2 2.40031163401206 39.0414569264737 -20.276782789913398 1.9725 0 0 0      
310 3 -1.1998439308046 37.07016397386207 -20.345778043254796 1.9725 0 0 0      
311 3 -1.1998439308046 39.11045217981513 -22.24807574252504 1.9725 0 0 0      
312 3 -1.1998439308046 39.0414569264737 -20.276782789913398 0.0 0 0 0      
313 1 1.20041594454073 41.08174513242676 -22.179080489183626 0.0 0 0 0      
314 2 2.40031163401206 42.98404283169703 -20.138792283230572 1.9725 0 0 0      
315 3 -1.1998439308046 41.01274987908533 -20.207787536571978 1.9725 0 0 0      
316 3 -1.1998439308046 43.05303808503845 -22.11008523584222 1.9725 0 0 0      
317 3 -1.1998439308046 42.98404283169703 -20.138792283230572 0.0 0 0 0      
318 1 1.20041594454073 45.024331037650086 -22.041089982500814 0.0 0 0 0      
319 2 2.40031163401206 46.92662873692029 -20.00080177654776 1.9725 0 0 0      
320 3 -1.1998439308046 44.95533578430866 -20.069797029889166 1.9725 0 0 0      
321 3 -1.1998439308046 46.99562399026172 -21.97209472915941 1.9725 0 0 0      
322 3 -1.1998439308046 46.92662873692029 -20.00080177654776 0.0 0 0 0      
323 1 1.20041594454073 48.96691694287336 -21.903099475817996 0.0 0 0 0      
324 2 2.40031163401206 50.86921464214362 -19.86281126986494 1.9725 0 0 0      
325 3 -1.1998439308046 48.897921689531984 -19.931806523206347 1.9725 0 0 0      
326 3 -1.1998439308046 50.938209895485045 -21.83410422247659 1.9725 0 0 0      
327 3 -1.1998439308046 50.86921464214362 -19.86281126986494 0.0 0 0 0      
328 1 1.20041594454073 52.90950284809668 -21.765108969135184 0.0 0 0 0      
329 2 2.40031163401206 54.811800547366886 -19.72482076318213 1.9725 0 0 0      
330 3 -1.1998439308046 52.84050759475525 -19.793816016523536 1.9725 0 0 0      
331 3 -1.1998439308046 54.88079580070831 -21.69611371579378 1.9725 0 0 0      
332 3 -1.1998439308046 54.811800547366886 -19.72482076318213 0.0 0 0 0      
333 1 1.20041594454073 56.85208875331995 -21.627118462452366 0.0 0 0 0      
334 2 2.40031163401206 58.75438645259021 -19.58683025649932 1.9725 0 0 0      
335 3 -1.1998439308046 56.78309349997858 -19.655825509840717 1.9725 0 0 0      
336 3 -1.1998439308046 58.82338170593164 -21.55812320911096 1.9725 0 0 0      
337 3 -1.1998439308046 58.75438645259021 -19.58683025649932 0.0 0 0 0      
338 1 1.20041594454073 60.79467465854327 -21.489127955769554 0.0 0 0 0      
339 2 2.40031163401206 62.696972357813536 -19.448839749816493 1.9725 0 0 0      
340 3 -1.1998439308046 60.725679405201845 -19.517835003157906 1.9725 0 0 0      
341 3 -1.1998439308046 62.765967611154906 -21.420132702428134 1.9725 0 0 0      
342 3 -1.1998439308046 62.696972357813536 -19.448839749816493 0.0 0 0 0      
343 1 1.20041594454073 64.7372605637666 -21.351137449086735 0.0 0 0 0      
344 2 2.40031163401206 66.6395582630368 -19.31084924313369 1.9725 0 0 0      
345 3 -1.1998439308046 64.66826531042517 -19.379844496475087 1.9725 0 0 0      
346 3 -1.1998439308046 66.70855351637823 -21.28214219574533 1.9725 0 0 0      
347 3 -1.1998439308046 66.6395582630368 -19.31084924313369 0.0 0 0 0      
348 1 1.20041594454073 68.67984646898987 -21.213146942403924 0.0 0 0 0      
349 2 2.40031163401206 70.58214416826013 -19.172858736450863 1.9725 0 0 0      
350 3 -1.1998439308046 68.61085121564844 -19.241853989792276 1.9725 0 0 0      
351 3 -1.1998439308046 70.6511394216015 -21.144151689062518 1.9725 0 0 0      
352 3 -1.1998439308046 70.58214416826013 -19.172858736450863 0.0 0 0 0      
353 1 1.20041594454073 72.62243237421313 -21.075156435721105 0.0 0 0 0      
354 2 2.40031163401206 74.52473007348345 -19.03486822976805 1.9725 0 0 0      
355 3 -1.1998439308046 72.55343712087176 -19.103863483109457 1.9725 0 0 0      
356 3 -1.1998439308046 74.59372532682482 -21.0061611823797 1.9725 0 0 0      
357 3 -1.1998439308046 74.52473007348345 -19.03486822976805 0.0 0 0 0      
358 1 1.20041594454073 76.56501827943646 -20.937165929038294 0.0 0 0 0      
359 2 2.40031163401206 78.46731597870672 -18.89687772308524 1.9725 0 0 0      
360 3 -1.1998439308046 76.49602302609509 -18.965872976426645 1.9725 0 0 0      
361 3 -1.1998439308046 78.53631123204809 -20.868170675696888 1.9725 0 0 0      
362 3 -1.1998439308046 78.46731597870672 -18.89687772308524 0.0 0 0 0      
363 1 1.20041594454073 80.50760418465978 -20.799175422355475 0.0 0 0 0      
364 2 2.40031163401206 82.40990188392999 -18.75888721640242 1.9725 0 0 0      
365 3 -1.1998439308046 80.43860893131836 -18.827882469743827 1.9725 0 0 0      
366 3 -1.1998439308046 82.47889713727142 -20.73018016901407 1.9725 0 0 0      
367 3 -1.1998439308046 82.40990188392999 -18.75888721640242 0.0 0 0 0      
368 1 1.20041594454073 84.45019008988305 -20.661184915672656 0.0 0 0 0      
369 2 2.40031163401206 86.35248778915332 -18.620896709719602 1.9725 0 0 0      