LAMMPS data file via write_data, version 19 Nov 2024, timestep = 0, units =.1 metal
              
45300 atoms             
3 atom types            
              
0 380.032724906685 xlo xhi           
-47.5040906133356 47.5040906133356 ylo yhi           
0 15.78 zlo zhi           
              
Masses              
              
1 87.62             
2 47.867             
3 15.999             
              
Atoms # charge            
              
1 3 -1.19990247087131 378.5868115490673 45.960695190140605 13.8075 0 0 0      
2 1 1.20025985275011 376.6155185964556 46.02969044348201 11.834999999999996 0 0 0      
3 3 -1.19990247087131 374.644225643844 46.09868569682342 13.8075 0 0 0      
4 1 1.20025985275011 372.6729326912324 46.16768095016483 11.834999999999996 0 0 0      
5 3 -1.19990247087131 370.7016397386207 46.23667620350624 13.8075 0 0 0      
6 2 2.40019466448441 287.83834047559 -47.163183891233714 1.9725 0 0 0      
7 3 -1.19990247087131 285.86704752297834 -47.23217914457512 1.9725 0 0 0      
8 3 -1.19990247087131 287.83834047559 -47.163183891233714 0.0 0 0 0      
9 2 2.40019466448441 291.7809263808133 -47.0251933845509 1.9725 0 0 0      
10 3 -1.19990247087131 289.80963342820166 -47.0941886378923 1.9725 0 0 0      
11 3 -1.19990247087131 291.7809263808133 -47.0251933845509 0.0 0 0 0      
12 2 2.40019466448441 295.72351228603657 -46.88720287786808 1.9725 0 0 0      
13 3 -1.19990247087131 293.752219333425 -46.95619813120949 1.9725 0 0 0      
14 3 -1.19990247087131 295.72351228603657 -46.88720287786808 0.0 0 0 0      
15 2 2.40019466448441 299.6660981912599 -46.74921237118527 1.9725 0 0 0      
16 3 -1.19990247087131 297.69480523864826 -46.81820762452668 1.9725 0 0 0      
17 3 -1.19990247087131 299.6660981912599 -46.74921237118527 0.0 0 0 0      
18 2 2.40019466448441 303.6086840964832 -46.61122186450245 1.9725 0 0 0      
19 3 -1.19990247087131 301.6373911438715 -46.68021711784386 1.9725 0 0 0      
20 3 -1.19990247087131 303.6086840964832 -46.61122186450245 0.0 0 0 0      
21 2 2.40019466448441 307.55127000170654 -46.47323135781964 1.9725 0 0 0      
22 3 -1.19990247087131 305.57997704909485 -46.54222661116104 1.9725 0 0 0      
23 3 -1.19990247087131 307.55127000170654 -46.47323135781964 0.0 0 0 0      
24 2 2.40019466448441 311.4938559069298 -46.33524085113682 1.9725 0 0 0      
25 3 -1.19990247087131 309.5225629543181 -46.40423610447823 1.9725 0 0 0      
26 3 -1.19990247087131 311.4938559069298 -46.33524085113682 0.0 0 0 0      
27 2 2.40019466448441 315.4364418121531 -46.197250344454005 1.9725 0 0 0      
28 3 -1.19990247087131 313.46514885954144 -46.26624559779542 1.9725 0 0 0      
29 3 -1.19990247087131 315.4364418121531 -46.197250344454005 0.0 0 0 0      
30 2 2.40019466448441 319.3790277173764 -46.0592598377712 1.9725 0 0 0      
31 3 -1.19990247087131 317.4077347647647 -46.1282550911126 1.9725 0 0 0      
32 3 -1.19990247087131 319.3790277173764 -46.0592598377712 0.0 0 0 0      
33 2 2.40019466448441 323.32161362259967 -45.921269331088375 1.9725 0 0 0      
34 3 -1.19990247087131 321.35032066998804 -45.99026458442978 1.9725 0 0 0      
35 3 -1.19990247087131 323.32161362259967 -45.921269331088375 0.0 0 0 0      
36 2 2.40019466448441 327.264199527823 -45.78327882440556 1.9725 0 0 0      
37 3 -1.19990247087131 325.29290657521136 -45.85227407774697 1.9725 0 0 0      
38 3 -1.19990247087131 327.264199527823 -45.78327882440556 0.0 0 0 0      
39 2 2.40019466448441 331.20678543304626 -45.645288317722745 1.9725 0 0 0      
40 3 -1.19990247087131 329.23549248043463 -45.71428357106415 1.9725 0 0 0      
41 3 -1.19990247087131 331.20678543304626 -45.645288317722745 0.0 0 0 0      
42 2 2.40019466448441 335.1493713382696 -45.50729781103993 1.9725 0 0 0      
43 3 -1.19990247087131 333.17807838565795 -45.57629306438133 1.9725 0 0 0      
44 1 1.20025985275011 368.7303467860091 46.30567145684765 11.834999999999996 0 0 0      
45 3 -1.19990247087131 335.1493713382696 -45.50729781103993 0.0 0 0 0      
46 3 -1.19990247087131 366.7590538333974 46.374666710189054 13.8075 0 0 0      
47 2 2.40019466448441 339.0919572434929 -45.36930730435711 1.9725 0 0 0      
48 3 -1.19990247087131 337.1206642908812 -45.43830255769852 1.9725 0 0 0      
49 1 1.20025985275011 364.78776088078575 46.44366196353046 11.834999999999996 0 0 0      
50 3 -1.19990247087131 339.0919572434929 -45.36930730435711 0.0 0 0 0      
51 3 -1.19990247087131 362.81646792817406 46.51265721687187 13.8075 0 0 0      
52 2 2.40019466448441 343.0345431487162 -45.231316797674296 1.9725 0 0 0      
53 3 -1.19990247087131 341.06325019610455 -45.30031205101571 1.9725 0 0 0      
54 3 -1.19990247087131 343.1035384020576 -47.20260975028594 1.9725 0 0 0      
55 3 -1.19990247087131 343.0345431487162 -45.231316797674296 0.0 0 0 0      
56 1 1.20025985275011 345.07483135466924 -47.13361449694454 0.0 0 0 0      
57 2 2.40019466448441 346.9771290539395 -45.093326290991484 1.9725 0 0 0      
58 3 -1.19990247087131 345.0058361013278 -45.16232154433289 1.9725 0 0 0      
59 3 -1.19990247087131 347.04612430728093 -47.06461924360313 1.9725 0 0 0      
60 3 -1.19990247087131 346.9771290539395 -45.093326290991484 0.0 0 0 0      
61 1 1.20025985275011 349.0174172598925 -46.99562399026172 0.0 0 0 0      
62 2 2.40019466448441 350.9197149591628 -44.955335784308666 1.9725 0 0 0      
63 3 -1.19990247087131 348.9484220065511 -45.02433103765007 1.9725 0 0 0      
64 3 -1.19990247087131 350.9887102125042 -46.92662873692032 1.9725 0 0 0      
65 3 -1.19990247087131 350.9197149591628 -44.955335784308666 0.0 0 0 0      
66 1 1.20025985275011 352.96000316511584 -46.85763348357891 0.0 0 0 0      
67 2 2.40019466448441 354.8623008643861 -44.81734527762585 1.9725 0 0 0      
68 3 -1.19990247087131 352.8910079117744 -44.88634053096726 1.9725 0 0 0      
69 3 -1.19990247087131 354.9312961177275 -46.788638230237495 1.9725 0 0 0      
70 3 -1.19990247087131 354.8623008643861 -44.81734527762585 0.0 0 0 0      
71 1 1.20025985275011 356.9025890703392 -46.71964297689609 0.0 0 0 0      
72 2 2.40019466448441 358.80488676960937 -44.67935477094304 1.9725 0 0 0      
73 3 -1.19990247087131 356.83359381699773 -44.74835002428444 1.9725 0 0 0      
74 3 -1.19990247087131 358.8738820229508 -46.65064772355469 1.9725 0 0 0      
75 3 -1.19990247087131 358.80488676960937 -44.67935477094304 0.0 0 0 0      
76 1 1.20025985275011 360.8451749755625 -46.58165247021327 0.0 0 0 0      
77 2 2.40019466448441 362.74747267483264 -44.541364264260224 1.9725 0 0 0      
78 3 -1.19990247087131 360.77617972222106 -44.61035951760162 1.9725 0 0 0      
79 3 -1.19990247087131 362.81646792817406 -46.51265721687187 1.9725 0 0 0      
80 3 -1.19990247087131 362.74747267483264 -44.541364264260224 0.0 0 0 0      
81 1 1.20025985275011 364.78776088078575 -46.44366196353046 0.0 0 0 0      
82 2 2.40019466448441 366.690058580056 -44.403373757577405 1.9725 0 0 0      
83 3 -1.19990247087131 364.7187656274443 -44.47236901091881 1.9725 0 0 0      
84 3 -1.19990247087131 366.7590538333974 -46.374666710189054 1.9725 0 0 0      
85 3 -1.19990247087131 366.690058580056 -44.403373757577405 0.0 0 0 0      
86 1 1.20025985275011 368.7303467860091 -46.30567145684765 0.0 0 0 0      
87 2 2.40019466448441 370.6326444852792 -44.26538325089459 1.9725 0 0 0      
88 3 -1.19990247087131 368.66135153266765 -44.334378504236 1.9725 0 0 0      
89 3 -1.19990247087131 370.7016397386207 -46.23667620350624 1.9725 0 0 0      
90 3 -1.19990247087131 370.6326444852792 -44.26538325089459 0.0 0 0 0      
91 1 1.20025985275011 372.6729326912324 -46.16768095016483 0.0 0 0 0      
92 2 2.40019466448441 374.5752303905026 -44.127392744211775 1.9725 0 0 0      
93 3 -1.19990247087131 372.6039374378909 -44.19638799755318 1.9725 0 0 0      
94 3 -1.19990247087131 374.644225643844 -46.09868569682342 1.9725 0 0 0      
95 3 -1.19990247087131 374.5752303905026 -44.127392744211775 0.0 0 0 0      
96 1 1.20025985275011 376.6155185964556 -46.02969044348201 0.0 0 0 0      
97 2 2.40019466448441 378.5178162957259 -43.98940223752896 1.9725 0 0 0      
98 3 -1.19990247087131 376.5465233431142 -44.05839749087036 1.9725 0 0 0      
99 3 -1.19990247087131 378.5868115490673 -45.960695190140605 1.9725 0 0 0      
100 3 -1.19990247087131 378.5178162957259 -43.98940223752896 0.0 0 0 0      
101 1 1.20025985275011 360.8451749755625 46.58165247021327 11.834999999999996 0 0 0      
102 3 -1.19990247087131 358.8738820229508 46.65064772355469 13.8075 0 0 0      
103 1 1.20025985275011 356.9025890703392 46.71964297689609 11.834999999999996 0 0 0      
104 3 -1.19990247087131 354.9312961177275 46.788638230237495 13.8075 0 0 0      
105 1 1.20025985275011 352.96000316511584 46.85763348357891 11.834999999999996 0 0 0      
106 2 2.40019466448441 173.3653587174315 -47.22232267981207 1.9725 0 0 0      
107 3 -1.19990247087131 350.9887102125042 46.92662873692032 13.8075 0 0 0      
108 3 -1.19990247087131 173.3653587174315 -47.22232267981207 0.0 0 0 0      
109 2 2.40019466448441 177.30794462265476 -47.084332173129255 1.9725 0 0 0      
110 3 -1.19990247087131 175.33665167004312 -47.15332742647066 1.9725 0 0 0      
111 3 -1.19990247087131 177.30794462265476 -47.084332173129255 0.0 0 0 0      
112 2 2.40019466448441 181.2505305278781 -46.94634166644644 1.9725 0 0 0      
113 3 -1.19990247087131 179.2792375752665 -47.01533691978784 1.9725 0 0 0      
114 3 -1.19990247087131 181.2505305278781 -46.94634166644644 0.0 0 0 0      
115 2 2.40019466448441 185.1931164331014 -46.80835115976362 1.9725 0 0 0      
116 3 -1.19990247087131 183.22182348048975 -46.87734641310503 1.9725 0 0 0      
117 3 -1.19990247087131 185.1931164331014 -46.80835115976362 0.0 0 0 0      
118 2 2.40019466448441 189.13570233832468 -46.670360653080806 1.9725 0 0 0      
119 3 -1.19990247087131 187.16440938571304 -46.73935590642221 1.9725 0 0 0      
120 3 -1.19990247087131 189.13570233832468 -46.670360653080806 0.0 0 0 0      
121 2 2.40019466448441 193.0782882435481 -46.53237014639799 1.9725 0 0 0      
122 3 -1.19990247087131 191.1069952909363 -46.60136539973939 1.9725 0 0 0      
123 3 -1.19990247087131 193.0782882435481 -46.53237014639799 0.0 0 0 0      
124 2 2.40019466448441 197.02087414877133 -46.394379639715176 1.9725 0 0 0      
125 3 -1.19990247087131 195.0495811961597 -46.46337489305658 1.9725 0 0 0      
126 3 -1.19990247087131 197.02087414877133 -46.394379639715176 0.0 0 0 0      
127 2 2.40019466448441 200.9634600539946 -46.25638913303236 1.9725 0 0 0      
128 3 -1.19990247087131 198.99216710138296 -46.32538438637376 1.9725 0 0 0      
129 3 -1.19990247087131 200.9634600539946 -46.25638913303236 0.0 0 0 0      
130 2 2.40019466448441 204.90604595921783 -46.118398626349546 1.9725 0 0 0      
131 3 -1.19990247087131 202.93475300660623 -46.18739387969095 1.9725 0 0 0      
132 3 -1.19990247087131 204.90604595921783 -46.118398626349546 0.0 0 0 0      
133 2 2.40019466448441 208.84863186444124 -45.98040811966673 1.9725 0 0 0      
134 3 -1.19990247087131 206.8773389118296 -46.04940337300813 1.9725 0 0 0      
135 3 -1.19990247087131 208.84863186444124 -45.98040811966673 0.0 0 0 0      
136 2 2.40019466448441 212.7912177696645 -45.84241761298391 1.9725 0 0 0      
137 3 -1.19990247087131 210.81992481705288 -45.91141286632532 1.9725 0 0 0      
138 3 -1.19990247087131 212.7912177696645 -45.84241761298391 0.0 0 0 0      
139 2 2.40019466448441 216.73380367488775 -45.7044271063011 1.9725 0 0 0      
140 3 -1.19990247087131 214.76251072227612 -45.7734223596425 1.9725 0 0 0      
141 3 -1.19990247087131 216.73380367488775 -45.7044271063011 0.0 0 0 0      
142 2 2.40019466448441 220.6763895801112 -45.56643659961828 1.9725 0 0 0      
143 3 -1.19990247087131 218.70509662749944 -45.63543185295969 1.9725 0 0 0      
144 3 -1.19990247087131 220.6763895801112 -45.56643659961828 0.0 0 0 0      
145 1 1.20025985275011 349.0174172598925 46.99562399026172 11.834999999999996 0 0 0      
146 2 2.40019466448441 224.61897548533443 -45.42844609293547 1.9725 0 0 0      
147 3 -1.19990247087131 222.6476825327228 -45.49744134627687 1.9725 0 0 0      
148 3 -1.19990247087131 347.04612430728093 47.06461924360313 13.8075 0 0 0      
149 3 -1.19990247087131 224.61897548533443 -45.42844609293547 0.0 0 0 0      
150 1 1.20025985275011 345.07483135466924 47.13361449694454 11.834999999999996 0 0 0      
151 2 2.40019466448441 228.5615613905577 -45.29045558625265 1.9725 0 0 0      
152 3 -1.19990247087131 226.5902684379461 -45.35945083959406 1.9725 0 0 0      
153 3 -1.19990247087131 343.1035384020576 47.20260975028594 13.8075 0 0 0      
154 3 -1.19990247087131 228.5615613905577 -45.29045558625265 0.0 0 0 0      
155 1 1.20025985275011 230.6018495965108 -47.19275328552289 0.0 0 0 0      
156 2 2.40019466448441 232.50414729578097 -45.15246507956984 1.9725 0 0 0      
157 3 -1.19990247087131 230.53285434316933 -45.22146033291124 1.9725 0 0 0      
158 3 -1.19990247087131 232.5731425491224 -47.123758032181485 1.9725 0 0 0      
159 3 -1.19990247087131 232.50414729578097 -45.15246507956984 0.0 0 0 0      
160 1 1.20025985275011 234.54443550173403 -47.05476277884007 0.0 0 0 0      
161 2 2.40019466448441 236.44673320100435 -45.01447457288702 1.9725 0 0 0      
162 3 -1.19990247087131 234.47544024839272 -45.08346982622842 1.9725 0 0 0      
163 3 -1.19990247087131 236.5157284543457 -46.985767525498666 1.9725 0 0 0      
164 3 -1.19990247087131 236.44673320100435 -45.01447457288702 0.0 0 0 0      
165 1 1.20025985275011 238.4870214069574 -46.91677227215726 0.0 0 0 0      
166 2 2.40019466448441 240.3893191062276 -44.8764840662042 1.9725 0 0 0      
167 3 -1.19990247087131 238.418026153616 -44.94547931954561 1.9725 0 0 0      
168 3 -1.19990247087131 240.45831435956904 -46.84777701881585 1.9725 0 0 0      
169 3 -1.19990247087131 240.3893191062276 -44.8764840662042 0.0 0 0 0      
170 1 1.20025985275011 242.42960731218068 -46.77878176547444 0.0 0 0 0      
171 2 2.40019466448441 244.33190501145089 -44.73849355952139 1.9725 0 0 0      
172 3 -1.19990247087131 242.36061205883925 -44.80748881286279 1.9725 0 0 0      
173 3 -1.19990247087131 244.4009002647923 -46.70978651213304 1.9725 0 0 0      
174 3 -1.19990247087131 244.33190501145089 -44.73849355952139 0.0 0 0 0      
175 1 1.20025985275011 246.37219321740395 -46.64079125879163 0.0 0 0 0      
176 2 2.40019466448441 248.27449091667427 -44.600503052838576 1.9725 0 0 0      
177 3 -1.19990247087131 246.3031979640625 -44.66949830617998 1.9725 0 0 0      
178 3 -1.19990247087131 248.3434861700156 -46.571796005450224 1.9725 0 0 0      
179 3 -1.19990247087131 248.27449091667427 -44.600503052838576 0.0 0 0 0      
180 1 1.20025985275011 250.3147791226272 -46.50280075210881 0.0 0 0 0      
181 2 2.40019466448441 252.21707682189756 -44.46251254615576 1.9725 0 0 0      
182 3 -1.19990247087131 250.2457838692859 -44.53150779949716 1.9725 0 0 0      
183 3 -1.19990247087131 252.28607207523896 -46.433805498767406 1.9725 0 0 0      
184 3 -1.19990247087131 252.21707682189756 -44.46251254615576 0.0 0 0 0      
185 1 1.20025985275011 254.2573650278506 -46.364810245426 0.0 0 0 0      
186 2 2.40019466448441 256.1596627271208 -44.32452203947294 1.9725 0 0 0      
187 3 -1.19990247087131 254.1883697745092 -44.39351729281435 1.9725 0 0 0      
188 3 -1.19990247087131 256.22865798046223 -46.29581499208459 1.9725 0 0 0      
189 3 -1.19990247087131 256.1596627271208 -44.32452203947294 0.0 0 0 0      
190 1 1.20025985275011 258.19995093307386 -46.22681973874318 0.0 0 0 0      
191 2 2.40019466448441 260.1022486323441 -44.18653153279013 1.9725 0 0 0      
192 3 -1.19990247087131 258.1309556797325 -44.25552678613153 1.9725 0 0 0      
193 3 -1.19990247087131 260.1712438856855 -46.157824485401775 1.9725 0 0 0      
194 3 -1.19990247087131 260.1022486323441 -44.18653153279013 0.0 0 0 0      
195 1 1.20025985275011 262.14253683829713 -46.08882923206036 0.0 0 0 0      
196 2 2.40019466448441 264.0448345375674 -44.04854102610731 1.9725 0 0 0      
197 3 -1.19990247087131 262.0735415849558 -44.11753627944872 1.9725 0 0 0      
198 3 -1.19990247087131 264.1138297909088 -46.01983397871896 1.9725 0 0 0      
199 3 -1.19990247087131 264.0448345375674 -44.04854102610731 0.0 0 0 0      
200 1 1.20025985275011 266.08512274352046 -45.95083872537755 0.0 0 0 0      
201 2 2.40019466448441 267.98742044279066 -43.9105505194245 1.9725 0 0 0      
202 3 -1.19990247087131 266.0161274901791 -43.9795457727659 1.9725 0 0 0      
203 3 -1.19990247087131 268.05641569613204 -45.88184347203615 1.9725 0 0 0      
204 3 -1.19990247087131 267.98742044279066 -43.9105505194245 0.0 0 0 0      
205 1 1.20025985275011 270.0277086487437 -45.81284821869474 0.0 0 0 0      
206 2 2.40019466448441 271.93000634801405 -43.77256001274168 1.9725 0 0 0      
207 3 -1.19990247087131 269.9587133954024 -43.84155526608309 1.9725 0 0 0      
208 3 -1.19990247087131 271.9990016013554 -45.74385296535333 1.9725 0 0 0      
209 3 -1.19990247087131 271.93000634801405 -43.77256001274168 0.0 0 0 0      
210 1 1.20025985275011 273.970294553967 -45.67485771201192 0.0 0 0 0      
211 2 2.40019466448441 275.8725922532373 -43.63456950605887 1.9725 0 0 0      
212 3 -1.19990247087131 273.9012993006256 -43.70356475940027 1.9725 0 0 0      
213 3 -1.19990247087131 275.9415875065787 -45.60586245867052 1.9725 0 0 0      
214 3 -1.19990247087131 275.8725922532373 -43.63456950605887 0.0 0 0 0      
215 1 1.20025985275011 277.9128804591903 -45.5368672053291 0.0 0 0 0      
216 2 2.40019466448441 279.81517815846064 -43.49657899937605 1.9725 0 0 0      
217 3 -1.19990247087131 277.8438852058489 -43.565574252717454 1.9725 0 0 0      
218 3 -1.19990247087131 279.884173411802 -45.467871951987696 1.9725 0 0 0      
219 3 -1.19990247087131 279.81517815846064 -43.49657899937605 0.0 0 0 0      
220 1 1.20025985275011 281.8554663644136 -45.39887669864629 0.0 0 0 0      
221 2 2.40019466448441 283.7577640636839 -43.35858849269323 1.9725 0 0 0      
222 3 -1.19990247087131 281.7864711110722 -43.42758374603464 1.9725 0 0 0      
223 3 -1.19990247087131 283.8267593170253 -45.32988144530488 1.9725 0 0 0      
224 3 -1.19990247087131 283.7577640636839 -43.35858849269323 0.0 0 0 0      
225 1 1.20025985275011 285.7980522696369 -45.26088619196347 0.0 0 0 0      
226 2 2.40019466448441 287.7003499689072 -43.22059798601042 1.9725 0 0 0      
227 3 -1.19990247087131 285.72905701629554 -43.289593239351824 1.9725 0 0 0      
228 3 -1.19990247087131 287.76934522224855 -45.19189093862207 1.9725 0 0 0      
229 3 -1.19990247087131 287.7003499689072 -43.22059798601042 0.0 0 0 0      
230 1 1.20025985275011 289.74063817486024 -45.12289568528065 0.0 0 0 0      
231 2 2.40019466448441 291.6429358741305 -43.082607479327606 1.9725 0 0 0      
232 3 -1.19990247087131 289.67164292151887 -43.151602732669005 1.9725 0 0 0      
233 3 -1.19990247087131 291.71193112747187 -45.053900431939255 1.9725 0 0 0      
234 3 -1.19990247087131 291.6429358741305 -43.082607479327606 0.0 0 0 0      
235 1 1.20025985275011 293.6832240800836 -44.98490517859784 0.0 0 0 0      
236 2 2.40019466448441 295.58552177935377 -42.94461697264479 1.9725 0 0 0      
237 3 -1.19990247087131 293.6142288267422 -43.01361222598619 1.9725 0 0 0      
238 3 -1.19990247087131 295.65451703269514 -44.91590992525644 1.9725 0 0 0      
239 3 -1.19990247087131 295.58552177935377 -42.94461697264479 0.0 0 0 0      
240 1 1.20025985275011 297.62580998530683 -44.84691467191503 0.0 0 0 0      
241 2 2.40019466448441 299.5281076845771 -42.80662646596197 1.9725 0 0 0      
242 3 -1.19990247087131 297.55681473196546 -42.87562171930338 1.9725 0 0 0      
243 3 -1.19990247087131 299.59710293791846 -44.77791941857362 1.9725 0 0 0      
244 3 -1.19990247087131 299.5281076845771 -42.80662646596197 0.0 0 0 0      
245 1 1.20025985275011 301.5683958905301 -44.70892416523221 0.0 0 0 0      
246 2 2.40019466448441 303.4706935898004 -42.66863595927916 1.9725 0 0 0      
247 3 -1.19990247087131 301.4994006371887 -42.73763121262056 1.9725 0 0 0      
248 3 -1.19990247087131 303.53968884314173 -44.639928911890806 1.9725 0 0 0      
249 3 -1.19990247087131 303.4706935898004 -42.66863595927916 0.0 0 0 0      
250 1 1.20025985275011 305.5109817957534 -44.57093365854939 0.0 0 0 0      
251 2 2.40019466448441 307.41327949502374 -42.53064545259634 1.9725 0 0 0      
252 3 -1.19990247087131 305.44198654241205 -42.59964070593775 1.9725 0 0 0      
253 3 -1.19990247087131 307.4822747483651 -44.50193840520799 1.9725 0 0 0      
254 3 -1.19990247087131 307.41327949502374 -42.53064545259634 0.0 0 0 0      
255 1 1.20025985275011 309.4535677009767 -44.43294315186658 0.0 0 0 0      
256 2 2.40019466448441 311.355865400247 -42.39265494591352 1.9725 0 0 0      
257 3 -1.19990247087131 309.3845724476353 -42.46165019925493 1.9725 0 0 0      
258 3 -1.19990247087131 311.4248606535884 -44.36394789852517 1.9725 0 0 0      
259 3 -1.19990247087131 311.355865400247 -42.39265494591352 0.0 0 0 0      
260 1 1.20025985275011 313.3961536062 -44.29495264518377 0.0 0 0 0      
261 2 2.40019466448441 315.2984513054703 -42.25466443923071 1.9725 0 0 0      
262 3 -1.19990247087131 313.32715835285865 -42.32365969257212 1.9725 0 0 0      
263 3 -1.19990247087131 315.36744655881165 -44.22595739184236 1.9725 0 0 0      
264 3 -1.19990247087131 315.2984513054703 -42.25466443923071 0.0 0 0 0      
265 1 1.20025985275011 317.3387395114233 -44.15696213850095 0.0 0 0 0      
266 2 2.40019466448441 319.2410372106936 -42.1166739325479 1.9725 0 0 0      
267 3 -1.19990247087131 317.2697442580819 -42.1856691858893 1.9725 0 0 0      
268 3 -1.19990247087131 319.310032464035 -44.087966885159545 1.9725 0 0 0      
269 3 -1.19990247087131 319.2410372106936 -42.1166739325479 0.0 0 0 0      
270 1 1.20025985275011 321.2813254166466 -44.01897163181813 0.0 0 0 0      
271 2 2.40019466448441 323.1836231159169 -41.97868342586508 1.9725 0 0 0      
272 3 -1.19990247087131 321.21233016330524 -42.04767867920648 1.9725 0 0 0      
273 3 -1.19990247087131 323.25261836925824 -43.94997637847673 1.9725 0 0 0      
274 3 -1.19990247087131 323.1836231159169 -41.97868342586508 0.0 0 0 0      
275 1 1.20025985275011 325.22391132186993 -43.88098112513532 0.0 0 0 0      
276 2 2.40019466448441 327.1262090211402 -41.84069291918226 1.9725 0 0 0      
277 3 -1.19990247087131 325.15491606852856 -41.90968817252367 1.9725 0 0 0      
278 3 -1.19990247087131 327.1952042744816 -43.81198587179391 1.9725 0 0 0      
279 3 -1.19990247087131 327.1262090211402 -41.84069291918226 0.0 0 0 0      
280 1 1.20025985275011 329.1664972270932 -43.7429906184525 0.0 0 0 0      
281 2 2.40019466448441 331.06879492636347 -41.70270241249945 1.9725 0 0 0      
282 3 -1.19990247087131 329.09750197375183 -41.77169766584085 1.9725 0 0 0      
283 3 -1.19990247087131 331.13779017970484 -43.6739953651111 1.9725 0 0 0      
284 3 -1.19990247087131 331.06879492636347 -41.70270241249945 0.0 0 0 0      
285 1 1.20025985275011 333.1090831323165 -43.60500011176968 0.0 0 0 0      
286 2 2.40019466448441 335.0113808315868 -41.56471190581664 1.9725 0 0 0      
287 3 -1.19990247087131 333.0400878789752 -41.63370715915804 1.9725 0 0 0      
288 3 -1.19990247087131 335.08037608492816 -43.536004858428285 1.9725 0 0 0      
289 3 -1.19990247087131 335.0113808315868 -41.56471190581664 0.0 0 0 0      
290 1 1.20025985275011 337.0516690375398 -43.46700960508687 0.0 0 0 0      
291 2 2.40019466448441 338.9539667368101 -41.42672139913381 1.9725 0 0 0      
292 3 -1.19990247087131 336.9826737841984 -41.49571665247522 1.9725 0 0 0      
293 3 -1.19990247087131 339.0229619901515 -43.39801435174546 1.9725 0 0 0      
294 3 -1.19990247087131 338.9539667368101 -41.42672139913381 0.0 0 0 0      
295 1 1.20025985275011 340.9942549427631 -43.32901909840406 0.0 0 0 0      
296 2 2.40019466448441 342.8965526420334 -41.288730892451 1.9725 0 0 0      
297 3 -1.19990247087131 340.9252596894217 -41.35772614579241 1.9725 0 0 0      
298 3 -1.19990247087131 342.96554789537475 -43.26002384506265 1.9725 0 0 0      
299 3 -1.19990247087131 342.8965526420334 -41.288730892451 0.0 0 0 0      
300 1 1.20025985275011 344.9368408479864 -43.19102859172124 0.0 0 0 0      
301 2 2.40019466448441 346.8391385472567 -41.15074038576819 1.9725 0 0 0      
302 3 -1.19990247087131 344.867845594645 -41.2197356391096 1.9725 0 0 0      
303 3 -1.19990247087131 346.9081338005981 -43.12203333837984 1.9725 0 0 0      
304 3 -1.19990247087131 346.8391385472567 -41.15074038576819 0.0 0 0 0      
305 1 1.20025985275011 348.87942675320966 -43.05303808503842 0.0 0 0 0      
306 2 2.40019466448441 350.78172445248 -41.01274987908537 1.9725 0 0 0      
307 3 -1.19990247087131 348.8104314998683 -41.081745132426775 1.9725 0 0 0      
308 3 -1.19990247087131 350.85071970582135 -42.98404283169702 1.9725 0 0 0      
309 3 -1.19990247087131 350.78172445248 -41.01274987908537 0.0 0 0 0      
310 1 1.20025985275011 352.822012658433 -42.91504757835561 0.0 0 0 0      
311 2 2.40019466448441 354.7243103577033 -40.87475937240255 1.9725 0 0 0      
312 3 -1.19990247087131 352.7530174050916 -40.94375462574396 1.9725 0 0 0      
313 3 -1.19990247087131 354.7933056110447 -42.8460523250142 1.9725 0 0 0      
314 3 -1.19990247087131 354.7243103577033 -40.87475937240255 0.0 0 0 0      
315 1 1.20025985275011 356.7645985636563 -42.77705707167279 0.0 0 0 0      
316 2 2.40019466448441 358.66689626292657 -40.73676886571974 1.9725 0 0 0      
317 3 -1.19990247087131 356.69560331031494 -40.805764119061145 1.9725 0 0 0      
318 3 -1.19990247087131 358.73589151626794 -42.70806181833139 1.9725 0 0 0      
319 3 -1.19990247087131 358.66689626292657 -40.73676886571974 0.0 0 0 0      
320 1 1.20025985275011 360.7071844688796 -42.63906656498997 0.0 0 0 0      
321 2 2.40019466448441 362.6094821681498 -40.59877835903693 1.9725 0 0 0      
322 3 -1.19990247087131 360.6381892155383 -40.667773612378326 1.9725 0 0 0      
323 3 -1.19990247087131 362.6784774214912 -42.570071311648576 1.9725 0 0 0      
324 3 -1.19990247087131 362.6094821681498 -40.59877835903693 0.0 0 0 0      
325 1 1.20025985275011 364.6497703741029 -42.50107605830716 0.0 0 0 0      
326 2 2.40019466448441 366.5520680733732 -40.46078785235411 1.9725 0 0 0      
327 3 -1.19990247087131 364.58077512076153 -40.52978310569552 1.9725 0 0 0      
328 3 -1.19990247087131 366.6210633267145 -42.43208080496576 1.9725 0 0 0      
329 3 -1.19990247087131 366.5520680733732 -40.46078785235411 0.0 0 0 0      
330 1 1.20025985275011 368.5923562793262 -42.36308555162435 0.0 0 0 0      
331 2 2.40019466448441 370.4946539785964 -40.32279734567129 1.9725 0 0 0      
332 3 -1.19990247087131 368.52336102598485 -40.3917925990127 1.9725 0 0 0      
333 3 -1.19990247087131 370.5636492319378 -42.29409029828294 1.9725 0 0 0      
334 3 -1.19990247087131 370.4946539785964 -40.32279734567129 0.0 0 0 0      
335 1 1.20025985275011 372.5349421845495 -42.22509504494153 0.0 0 0 0      
336 2 2.40019466448441 374.4372398838198 -40.18480683898848 1.9725 0 0 0      
337 3 -1.19990247087131 372.4659469312081 -40.253802092329884 1.9725 0 0 0      
338 3 -1.19990247087131 374.5062351371612 -42.15609979160013 1.9725 0 0 0      
339 3 -1.19990247087131 374.4372398838198 -40.18480683898848 0.0 0 0 0      
340 1 1.20025985275011 376.4775280897728 -42.08710453825872 0.0 0 0 0      
341 2 2.40019466448441 378.3798257890431 -40.04681633230566 1.9725 0 0 0      
342 3 -1.19990247087131 376.4085328364314 -40.115811585647066 1.9725 0 0 0      
343 3 -1.19990247087131 378.44882104238445 -42.01810928491731 1.9725 0 0 0      
344 3 -1.19990247087131 378.3798257890431 -40.04681633230566 0.0 0 0 0      
345 1 1.20025985275011 341.132245449446 47.27160500362736 11.834999999999996 0 0 0      
346 3 -1.19990247087131 339.16095249683434 47.34060025696876 13.8075 0 0 0      
347 1 1.20025985275011 337.18965954422265 47.40959551031017 11.834999999999996 0 0 0      
348 3 -1.19990247087131 335.218366591611 47.47859076365158 13.8075 0 0 0      
349 3 -1.19990247087131 378.5178162957259 43.98940223752896 11.834999999999996 0 0 0      
350 3 -1.19990247087131 378.44882104238445 42.01810928491731 13.8075 0 0 0      
351 2 2.40019466448441 62.83496286449633 -47.1434709617076 1.9725 0 0 0      
352 3 -1.19990247087131 60.8636699118847 -47.21246621504901 1.9725 0 0 0      
353 3 -1.19990247087131 62.83496286449633 -47.1434709617076 0.0 0 0 0      
354 2 2.40019466448441 66.7775487697196 -47.00548045502479 1.9725 0 0 0      
355 3 -1.19990247087131 64.80625581710797 -47.074475708366194 1.9725 0 0 0      
356 3 -1.19990247087131 66.7775487697196 -47.00548045502479 0.0 0 0 0      
357 2 2.40019466448441 70.72013467494298 -46.86748994834197 1.9725 0 0 0      
358 3 -1.19990247087131 68.74884172233124 -46.93648520168338 1.9725 0 0 0      
359 3 -1.19990247087131 70.72013467494298 -46.86748994834197 0.0 0 0 0      
360 2 2.40019466448441 74.66272058016625 -46.72949944165916 1.9725 0 0 0      
361 3 -1.19990247087131 72.69142762755462 -46.79849469500056 1.9725 0 0 0      
362 3 -1.19990247087131 74.66272058016625 -46.72949944165916 0.0 0 0 0      
363 2 2.40019466448441 78.60530648538952 -46.59150893497634 1.9725 0 0 0      
364 3 -1.19990247087131 76.63401353277789 -46.66050418831775 1.9725 0 0 0      
365 3 -1.19990247087131 78.60530648538952 -46.59150893497634 0.0 0 0 0      
366 2 2.40019466448441 82.54789239061279 -46.45351842829353 1.9725 0 0 0      
367 3 -1.19990247087131 80.57659943800115 -46.52251368163493 1.9725 0 0 0      
368 3 -1.19990247087131 82.54789239061279 -46.45351842829353 0.0 0 0 0      
369 2 2.40019466448441 86.49047829583617 -46.31552792161071 1.9725 0 0 0      
370 3 -1.19990247087131 84.51918534322454 -46.38452317495212 1.9725 0 0 0      
371 3 -1.19990247087131 86.49047829583617 -46.31552792161071 0.0 0 0 0      
372 2 2.40019466448441 90.43306420105944 -46.1775374149279 1.9725 0 0 0      
373 3 -1.19990247087131 88.4617712484478 -46.2465326682693 1.9725 0 0 0      
374 3 -1.19990247087131 90.43306420105944 -46.1775374149279 0.0 0 0 0      