LAMMPS data file via write_data, version 19 Nov 2024, timestep = 0, units =.1 metal
              
28700 atoms             
3 atom types            
              
0 237.520453066678 xlo xhi           
-142.512271840007 47.5040906133356 ylo yhi           
0 7.89 zlo zhi           
              
Masses              
              
1 87.62             
2 47.867             
3 15.999             
              
Atoms # charge            
              
1 2 2.40015524373887 160.9067872569259 -142.39634643190251 1.9725 0 0 0      
2 3 -1.19992230665555 158.9354943043142 -142.4653416852439 1.9725 0 0 0      
3 3 -1.19992230665555 160.9067872569259 -142.39634643190251 0.0 0 0 0      
4 2 2.40015524373887 164.84937316214922 -142.2583559252197 1.9725 0 0 0      
5 3 -1.19992230665555 162.87808020953753 -142.32735117856112 1.9725 0 0 0      
6 3 -1.19992230665555 164.84937316214922 -142.2583559252197 0.0 0 0 0      
7 2 2.40015524373887 168.7919590673725 -142.1203654185369 1.9725 0 0 0      
8 3 -1.19992230665555 166.82066611476083 -142.1893606718783 1.9725 0 0 0      
9 3 -1.19992230665555 168.7919590673725 -142.1203654185369 0.0 0 0 0      
10 2 2.40015524373887 172.73454497259576 -141.98237491185407 1.9725 0 0 0      
11 3 -1.19992230665555 170.76325201998412 -142.05137016519546 1.9725 0 0 0      
12 3 -1.19992230665555 172.73454497259576 -141.98237491185407 0.0 0 0 0      
13 2 2.40015524373887 176.67713087781908 -141.84438440517124 1.9725 0 0 0      
14 3 -1.19992230665555 174.70583792520745 -141.91337965851267 1.9725 0 0 0      
15 3 -1.19992230665555 176.67713087781908 -141.84438440517124 0.0 0 0 0      
16 2 2.40015524373887 180.6197167830424 -141.70639389848844 1.9725 0 0 0      
17 3 -1.19992230665555 178.64842383043072 -141.77538915182984 1.9725 0 0 0      
18 3 -1.19992230665555 180.6197167830424 -141.70639389848844 0.0 0 0 0      
19 2 2.40015524373887 184.56230268826567 -141.56840339180562 1.9725 0 0 0      
20 3 -1.19992230665555 182.59100973565404 -141.63739864514702 1.9725 0 0 0      
21 3 -1.19992230665555 184.56230268826567 -141.56840339180562 0.0 0 0 0      
22 2 2.40015524373887 188.504888593489 -141.4304128851228 1.9725 0 0 0      
23 3 -1.19992230665555 186.5335956408773 -141.49940813846422 1.9725 0 0 0      
24 3 -1.19992230665555 188.504888593489 -141.4304128851228 0.0 0 0 0      
25 2 2.40015524373887 192.44747449871227 -141.29242237844 1.9725 0 0 0      
26 3 -1.19992230665555 190.47618154610063 -141.3614176317814 1.9725 0 0 0      
27 3 -1.19992230665555 192.44747449871227 -141.29242237844 0.0 0 0 0      
28 2 2.40015524373887 196.3900604039356 -141.15443187175717 1.9725 0 0 0      
29 3 -1.19992230665555 194.418767451324 -141.22342712509857 1.9725 0 0 0      
30 3 -1.19992230665555 196.3900604039356 -141.15443187175717 0.0 0 0 0      
31 2 2.40015524373887 200.3326463091589 -141.01644136507434 1.9725 0 0 0      
32 3 -1.19992230665555 198.36135335654723 -141.08543661841577 1.9725 0 0 0      
33 3 -1.19992230665555 200.3326463091589 -141.01644136507434 0.0 0 0 0      
34 2 2.40015524373887 204.27523221438216 -140.87845085839157 1.9725 0 0 0      
35 3 -1.19992230665555 202.30393926177052 -140.94744611173294 1.9725 0 0 0      
36 3 -1.19992230665555 204.27523221438216 -140.87845085839157 0.0 0 0 0      
37 2 2.40015524373887 208.2178181196055 -140.74046035170872 1.9725 0 0 0      
38 3 -1.19992230665555 206.24652516699385 -140.80945560505012 1.9725 0 0 0      
39 3 -1.19992230665555 208.2178181196055 -140.74046035170872 0.0 0 0 0      
40 2 2.40015524373887 212.1604040248288 -140.6024698450259 1.9725 0 0 0      
41 3 -1.19992230665555 210.18911107221717 -140.67146509836732 1.9725 0 0 0      
42 3 -1.19992230665555 212.1604040248288 -140.6024698450259 0.0 0 0 0      
43 1 1.20020711080428 214.20069223078184 -142.50476754429613 0.0 0 0 0      
44 2 2.40015524373887 216.1029899300521 -140.4644793383431 1.9725 0 0 0      
45 3 -1.19992230665555 214.1316969774404 -140.5334745916845 1.9725 0 0 0      
46 3 -1.19992230665555 216.17198518339347 -142.43577229095473 1.9725 0 0 0      
47 3 -1.19992230665555 216.1029899300521 -140.4644793383431 0.0 0 0 0      
48 1 1.20020711080428 218.1432781360051 -142.36677703761333 0.0 0 0 0      
49 2 2.40015524373887 220.04557583527537 -140.32648883166027 1.9725 0 0 0      
50 3 -1.19992230665555 218.0742828826637 -140.3954840850017 1.9725 0 0 0      
51 3 -1.19992230665555 220.11457108861677 -142.2977817842719 1.9725 0 0 0      
52 3 -1.19992230665555 220.04557583527537 -140.32648883166027 0.0 0 0 0      
53 1 1.20020711080428 222.08586404122843 -142.2287865309305 0.0 0 0 0      
54 2 2.40015524373887 223.9881617404987 -140.18849832497747 1.9725 0 0 0      
55 3 -1.19992230665555 222.01686878788703 -140.25749357831887 1.9725 0 0 0      
56 3 -1.19992230665555 224.05715699384007 -142.1597912775891 1.9725 0 0 0      
57 3 -1.19992230665555 223.9881617404987 -140.18849832497747 0.0 0 0 0      
58 1 1.20020711080428 226.02844994645176 -142.09079602424768 0.0 0 0 0      
59 2 2.40015524373887 227.930747645722 -140.05050781829465 1.9725 0 0 0      
60 3 -1.19992230665555 225.95945469311036 -140.11950307163605 1.9725 0 0 0      
61 3 -1.19992230665555 227.9997428990634 -142.02180077090628 1.9725 0 0 0      
62 3 -1.19992230665555 227.930747645722 -140.05050781829465 0.0 0 0 0      
63 1 1.20020711080428 229.97103585167503 -141.95280551756488 0.0 0 0 0      
64 2 2.40015524373887 231.8733335509453 -139.91251731161182 1.9725 0 0 0      
65 3 -1.19992230665555 229.90204059833363 -139.98151256495325 1.9725 0 0 0      
66 3 -1.19992230665555 231.94232880428663 -141.88381026422346 1.9725 0 0 0      
67 3 -1.19992230665555 231.8733335509453 -139.91251731161182 0.0 0 0 0      
68 1 1.20020711080428 233.91362175689832 -141.81481501088206 0.0 0 0 0      
69 2 2.40015524373887 235.8159194561686 -139.77452680492902 1.9725 0 0 0      
70 3 -1.19992230665555 233.84462650355687 -139.84352205827042 1.9725 0 0 0      
71 3 -1.19992230665555 235.88491470951 -141.74581975754066 1.9725 0 0 0      
72 3 -1.19992230665555 235.8159194561686 -139.77452680492902 0.0 0 0 0      
73 2 2.40015524373887 46.43380549876741 -142.45548522048085 1.9725 0 0 0      
74 3 -1.19992230665555 46.43380549876741 -142.45548522048085 0.0 0 0 0      
75 2 2.40015524373887 50.37639140399068 -142.31749471379806 1.9725 0 0 0      
76 3 -1.19992230665555 48.40509845137905 -142.38648996713945 1.9725 0 0 0      
77 3 -1.19992230665555 50.37639140399068 -142.31749471379806 0.0 0 0 0      
78 2 2.40015524373887 54.318977309214006 -142.17950420711523 1.9725 0 0 0      
79 3 -1.19992230665555 52.34768435660237 -142.24849946045663 1.9725 0 0 0      
80 3 -1.19992230665555 54.318977309214006 -142.17950420711523 0.0 0 0 0      
81 2 2.40015524373887 58.26156321443733 -142.0415137004324 1.9725 0 0 0      
82 3 -1.19992230665555 56.29027026182564 -142.11050895377383 1.9725 0 0 0      
83 3 -1.19992230665555 58.26156321443733 -142.0415137004324 0.0 0 0 0      
84 2 2.40015524373887 62.2041491196606 -141.9035231937496 1.9725 0 0 0      
85 3 -1.19992230665555 60.232856167048965 -141.972518447091 1.9725 0 0 0      
86 3 -1.19992230665555 62.2041491196606 -141.9035231937496 0.0 0 0 0      
87 2 2.40015524373887 66.14673502488392 -141.76553268706678 1.9725 0 0 0      
88 3 -1.19992230665555 64.17544207227223 -141.83452794040818 1.9725 0 0 0      
89 3 -1.19992230665555 66.14673502488392 -141.76553268706678 0.0 0 0 0      
90 2 2.40015524373887 70.08932093010719 -141.62754218038395 1.9725 0 0 0      
91 3 -1.19992230665555 68.11802797749556 -141.69653743372538 1.9725 0 0 0      
92 3 -1.19992230665555 70.08932093010719 -141.62754218038395 0.0 0 0 0      
93 2 2.40015524373887 74.03190683533052 -141.48955167370116 1.9725 0 0 0      
94 3 -1.19992230665555 72.06061388271888 -141.55854692704256 1.9725 0 0 0      
95 3 -1.19992230665555 74.03190683533052 -141.48955167370116 0.0 0 0 0      
96 2 2.40015524373887 77.97449274055379 -141.35156116701833 1.9725 0 0 0      
97 3 -1.19992230665555 76.00319978794215 -141.42055642035976 1.9725 0 0 0      
98 3 -1.19992230665555 77.97449274055379 -141.35156116701833 0.0 0 0 0      
99 2 2.40015524373887 81.91707864577711 -141.2135706603355 1.9725 0 0 0      
100 3 -1.19992230665555 79.94578569316542 -141.28256591367693 1.9725 0 0 0      
101 3 -1.19992230665555 81.91707864577711 -141.2135706603355 0.0 0 0 0      
102 2 2.40015524373887 85.85966455100044 -141.0755801536527 1.9725 0 0 0      
103 3 -1.19992230665555 83.88837159838874 -141.1445754069941 1.9725 0 0 0      
104 3 -1.19992230665555 85.85966455100044 -141.0755801536527 0.0 0 0 0      
105 2 2.40015524373887 89.8022504562237 -140.93758964696988 1.9725 0 0 0      
106 3 -1.19992230665555 87.83095750361207 -141.0065849003113 1.9725 0 0 0      
107 3 -1.19992230665555 89.8022504562237 -140.93758964696988 0.0 0 0 0      
108 2 2.40015524373887 93.74483636144696 -140.79959914028709 1.9725 0 0 0      
109 3 -1.19992230665555 91.77354340883534 -140.86859439362848 1.9725 0 0 0      
110 3 -1.19992230665555 93.74483636144696 -140.79959914028709 0.0 0 0 0      
111 2 2.40015524373887 97.6874222666703 -140.66160863360426 1.9725 0 0 0      
112 3 -1.19992230665555 95.71612931405866 -140.73060388694566 1.9725 0 0 0      
113 3 -1.19992230665555 97.6874222666703 -140.66160863360426 0.0 0 0 0      
114 2 2.40015524373887 101.63000817189362 -140.52361812692143 1.9725 0 0 0      
115 3 -1.19992230665555 99.65871521928192 -140.59261338026286 1.9725 0 0 0      
116 3 -1.19992230665555 101.699003425235 -142.4949110795331 1.9725 0 0 0      
117 3 -1.19992230665555 101.63000817189362 -140.52361812692143 0.0 0 0 0      
118 1 1.20020711080428 103.67029637784668 -142.4259158261917 0.0 0 0 0      
119 2 2.40015524373887 105.57259407711688 -140.38562762023864 1.9725 0 0 0      
120 3 -1.19992230665555 103.60130112450526 -140.45462287358004 1.9725 0 0 0      
121 3 -1.19992230665555 105.64158933045832 -142.3569205728503 1.9725 0 0 0      
122 3 -1.19992230665555 105.57259407711688 -140.38562762023864 0.0 0 0 0      
123 1 1.20020711080428 107.61288228306996 -142.28792531950887 0.0 0 0 0      
124 2 2.40015524373887 109.51517998234016 -140.2476371135558 1.9725 0 0 0      
125 3 -1.19992230665555 107.54388702972852 -140.3166323668972 1.9725 0 0 0      
126 3 -1.19992230665555 109.58417523568158 -142.21893006616747 1.9725 0 0 0      
127 3 -1.19992230665555 109.51517998234016 -140.2476371135558 0.0 0 0 0      
128 1 1.20020711080428 111.55546818829322 -142.14993481282607 0.0 0 0 0      
129 2 2.40015524373887 113.45776588756348 -140.109646606873 1.9725 0 0 0      
130 3 -1.19992230665555 111.48647293495183 -140.1786418602144 1.9725 0 0 0      
131 3 -1.19992230665555 113.52676114090492 -142.08093955948465 1.9725 0 0 0      
132 3 -1.19992230665555 113.45776588756348 -140.109646606873 0.0 0 0 0      
133 1 1.20020711080428 115.49805409351654 -142.01194430614325 0.0 0 0 0      
134 2 2.40015524373887 117.4003517927868 -139.9716561001902 1.9725 0 0 0      
135 3 -1.19992230665555 115.42905884017516 -140.0406513535316 1.9725 0 0 0      
136 3 -1.19992230665555 117.46934704612818 -141.94294905280185 1.9725 0 0 0      
137 3 -1.19992230665555 117.4003517927868 -139.9716561001902 0.0 0 0 0      
138 1 1.20020711080428 119.44063999873988 -141.87395379946042 0.0 0 0 0      
139 2 2.40015524373887 121.34293769801008 -139.83366559350736 1.9725 0 0 0      
140 3 -1.19992230665555 119.37164474539844 -139.9026608468488 1.9725 0 0 0      
141 3 -1.19992230665555 121.4119329513515 -141.80495854611902 1.9725 0 0 0      
142 3 -1.19992230665555 121.34293769801008 -139.83366559350736 0.0 0 0 0      
143 1 1.20020711080428 123.38322590396314 -141.73596329277763 0.0 0 0 0      
144 2 2.40015524373887 125.2855236032334 -139.69567508682456 1.9725 0 0 0      
145 3 -1.19992230665555 123.31423065062172 -139.76467034016596 1.9725 0 0 0      
146 3 -1.19992230665555 125.35451885657476 -141.66696803943623 1.9725 0 0 0      
147 3 -1.19992230665555 125.2855236032334 -139.69567508682456 0.0 0 0 0      
148 1 1.20020711080428 127.32581180918646 -141.5979727860948 0.0 0 0 0      
149 2 2.40015524373887 129.22810950845673 -139.55768458014174 1.9725 0 0 0      
150 3 -1.19992230665555 127.25681655584503 -139.62667983348314 1.9725 0 0 0      
151 3 -1.19992230665555 129.2971047617981 -141.5289775327534 1.9725 0 0 0      
152 3 -1.19992230665555 129.22810950845673 -139.55768458014174 0.0 0 0 0      
153 1 1.20020711080428 131.2683977144098 -141.459982279412 0.0 0 0 0      
154 2 2.40015524373887 133.17069541368 -139.4196940734589 1.9725 0 0 0      
155 3 -1.19992230665555 131.19940246106836 -139.48868932680034 1.9725 0 0 0      
156 3 -1.19992230665555 133.23969066702142 -141.39098702607058 1.9725 0 0 0      
157 3 -1.19992230665555 133.17069541368 -139.4196940734589 0.0 0 0 0      
158 1 1.20020711080428 135.21098361963303 -141.32199177272918 0.0 0 0 0      
159 2 2.40015524373887 137.11328131890326 -139.28170356677612 1.9725 0 0 0      
160 3 -1.19992230665555 135.14198836629163 -139.35069882011751 1.9725 0 0 0      
161 3 -1.19992230665555 137.1822765722447 -141.25299651938778 1.9725 0 0 0      
162 3 -1.19992230665555 137.11328131890326 -139.28170356677612 0.0 0 0 0      
163 1 1.20020711080428 139.15356952485632 -141.18400126604635 0.0 0 0 0      
164 2 2.40015524373887 141.05586722412653 -139.1437130600933 1.9725 0 0 0      
165 3 -1.19992230665555 139.0845742715149 -139.2127083134347 1.9725 0 0 0      
166 3 -1.19992230665555 141.12486247746796 -141.11500601270495 1.9725 0 0 0      
167 3 -1.19992230665555 141.05586722412653 -139.1437130600933 0.0 0 0 0      
168 1 1.20020711080428 143.09615543007965 -141.04601075936355 0.0 0 0 0      
169 2 2.40015524373887 144.99845312934983 -139.00572255341046 1.9725 0 0 0      
170 3 -1.19992230665555 143.02716017673822 -139.0747178067519 1.9725 0 0 0      
171 3 -1.19992230665555 145.06744838269128 -140.97701550602213 1.9725 0 0 0      
172 3 -1.19992230665555 144.99845312934983 -139.00572255341046 0.0 0 0 0      
173 1 1.20020711080428 147.03874133530297 -140.90802025268073 0.0 0 0 0      
174 2 2.40015524373887 148.94103903457318 -138.86773204672767 1.9725 0 0 0      
175 3 -1.19992230665555 146.96974608196157 -138.93672730006907 1.9725 0 0 0      
176 3 -1.19992230665555 149.0100342879146 -140.83902499933933 1.9725 0 0 0      
177 3 -1.19992230665555 148.94103903457318 -138.86773204672767 0.0 0 0 0      
178 1 1.20020711080428 150.98132724052624 -140.7700297459979 0.0 0 0 0      
179 2 2.40015524373887 152.88362493979645 -138.72974154004484 1.9725 0 0 0      
180 3 -1.19992230665555 150.9123319871848 -138.79873679338624 1.9725 0 0 0      
181 3 -1.19992230665555 152.95262019313788 -140.7010344926565 1.9725 0 0 0      
182 3 -1.19992230665555 152.88362493979645 -138.72974154004484 0.0 0 0 0      
183 1 1.20020711080428 154.9239131457495 -140.6320392393151 0.0 0 0 0      
184 2 2.40015524373887 156.82621084501977 -138.59175103336202 1.9725 0 0 0      
185 3 -1.19992230665555 154.85491789240808 -138.66074628670344 1.9725 0 0 0      
186 3 -1.19992230665555 156.8952060983612 -140.56304398597368 1.9725 0 0 0      
187 3 -1.19992230665555 156.82621084501977 -138.59175103336202 0.0 0 0 0      
188 1 1.20020711080428 158.86649905097283 -140.49404873263228 0.0 0 0 0      
189 2 2.40015524373887 160.7687967502431 -138.45376052667922 1.9725 0 0 0      
190 3 -1.19992230665555 158.7975037976314 -138.52275578002062 1.9725 0 0 0      
191 3 -1.19992230665555 160.83779200358452 -140.42505347929088 1.9725 0 0 0      
192 3 -1.19992230665555 160.7687967502431 -138.45376052667922 0.0 0 0 0      
193 1 1.20020711080428 162.80908495619616 -140.35605822594948 0.0 0 0 0      
194 2 2.40015524373887 164.71138265546637 -138.3157700199964 1.9725 0 0 0      
195 3 -1.19992230665555 162.74008970285473 -138.3847652733378 1.9725 0 0 0      
196 3 -1.19992230665555 164.7803779088078 -140.28706297260806 1.9725 0 0 0      
197 3 -1.19992230665555 164.71138265546637 -138.3157700199964 0.0 0 0 0      
198 1 1.20020711080428 166.75167086141943 -140.21806771926666 0.0 0 0 0      
199 2 2.40015524373887 168.65396856068963 -138.17777951331357 1.9725 0 0 0      
200 3 -1.19992230665555 166.682675608078 -138.246774766655 1.9725 0 0 0      
201 3 -1.19992230665555 168.72296381403106 -140.14907246592526 1.9725 0 0 0      
202 3 -1.19992230665555 168.65396856068963 -138.17777951331357 0.0 0 0 0      
203 1 1.20020711080428 170.69425676664275 -140.08007721258383 0.0 0 0 0      
204 2 2.40015524373887 172.59655446591296 -138.03978900663077 1.9725 0 0 0      
205 3 -1.19992230665555 170.62526151330133 -138.10878425997217 1.9725 0 0 0      
206 3 -1.19992230665555 172.6655497192544 -140.01108195924243 1.9725 0 0 0      
207 3 -1.19992230665555 172.59655446591296 -138.03978900663077 0.0 0 0 0      
208 1 1.20020711080428 174.63684267186608 -139.94208670590103 0.0 0 0 0      
209 2 2.40015524373887 176.53914037113628 -137.90179849994794 1.9725 0 0 0      
210 3 -1.19992230665555 174.56784741852465 -137.97079375328937 1.9725 0 0 0      
211 3 -1.19992230665555 176.6081356244777 -139.8730914525596 1.9725 0 0 0      
212 3 -1.19992230665555 176.53914037113628 -137.90179849994794 0.0 0 0 0      
213 1 1.20020711080428 178.57942857708937 -139.8040961992182 0.0 0 0 0      
214 2 2.40015524373887 180.48172627635955 -137.76380799326515 1.9725 0 0 0      
215 3 -1.19992230665555 178.51043332374792 -137.83280324660657 1.9725 0 0 0      
216 3 -1.19992230665555 180.55072152970095 -139.7351009458768 1.9725 0 0 0      
217 3 -1.19992230665555 180.48172627635955 -137.76380799326515 0.0 0 0 0      
218 1 1.20020711080428 182.5220144823126 -139.66610569253538 0.0 0 0 0      
219 2 2.40015524373887 184.42431218158288 -137.62581748658232 1.9725 0 0 0      
220 3 -1.19992230665555 182.4530192289712 -137.69481273992372 1.9725 0 0 0      
221 3 -1.19992230665555 184.4933074349243 -139.59711043919398 1.9725 0 0 0      
222 3 -1.19992230665555 184.42431218158288 -137.62581748658232 0.0 0 0 0      
223 1 1.20020711080428 186.46460038753597 -139.52811518585258 0.0 0 0 0      
224 2 2.40015524373887 188.3668980868062 -137.4878269798995 1.9725 0 0 0      
225 3 -1.19992230665555 186.3956051341945 -137.55682223324092 1.9725 0 0 0      
226 3 -1.19992230665555 188.43589334014763 -139.45911993251116 1.9725 0 0 0      
227 3 -1.19992230665555 188.3668980868062 -137.4878269798995 0.0 0 0 0      
228 1 1.20020711080428 190.4071862927593 -139.39012467916976 0.0 0 0 0      
229 2 2.40015524373887 192.30948399202947 -137.3498364732167 1.9725 0 0 0      
230 3 -1.19992230665555 190.33819103941784 -137.4188317265581 1.9725 0 0 0      
231 3 -1.19992230665555 192.3784792453709 -139.32112942582836 1.9725 0 0 0      
232 3 -1.19992230665555 192.30948399202947 -137.3498364732167 0.0 0 0 0      
233 1 1.20020711080428 194.34977219798253 -139.25213417248693 0.0 0 0 0      
234 2 2.40015524373887 196.25206989725277 -137.21184596653387 1.9725 0 0 0      
235 3 -1.19992230665555 194.2807769446411 -137.28084121987527 1.9725 0 0 0      
236 3 -1.19992230665555 196.32106515059417 -139.1831389191455 1.9725 0 0 0      
237 3 -1.19992230665555 196.25206989725277 -137.21184596653387 0.0 0 0 0      
238 1 1.20020711080428 198.2923581032058 -139.11414366580414 0.0 0 0 0      
239 2 2.40015524373887 200.1946558024761 -137.07385545985105 1.9725 0 0 0      
240 3 -1.19992230665555 198.2233628498644 -137.14285071319247 1.9725 0 0 0      
241 3 -1.19992230665555 200.2636510558175 -139.0451484124627 1.9725 0 0 0      
242 3 -1.19992230665555 200.1946558024761 -137.07385545985105 0.0 0 0 0      
243 1 1.20020711080428 202.2349440084292 -138.9761531591213 0.0 0 0 0      
244 2 2.40015524373887 204.1372417076994 -136.93586495316825 1.9725 0 0 0      
245 3 -1.19992230665555 202.16594875508773 -137.00486020650965 1.9725 0 0 0      
246 3 -1.19992230665555 204.2062369610408 -138.9071579057799 1.9725 0 0 0      
247 3 -1.19992230665555 204.1372417076994 -136.93586495316825 0.0 0 0 0      
248 1 1.20020711080428 206.17752991365245 -138.83816265243848 0.0 0 0 0      
249 2 2.40015524373887 208.07982761292263 -136.79787444648542 1.9725 0 0 0      
250 3 -1.19992230665555 206.10853466031105 -136.86686969982682 1.9725 0 0 0      
251 3 -1.19992230665555 208.14882286626408 -138.76916739909709 1.9725 0 0 0      
252 3 -1.19992230665555 208.07982761292263 -136.79787444648542 0.0 0 0 0      
253 1 1.20020711080428 210.1201158188757 -138.7001721457557 0.0 0 0 0      
254 2 2.40015524373887 212.02241351814592 -136.65988393980265 1.9725 0 0 0      
255 3 -1.19992230665555 210.0511205655343 -136.72887919314402 1.9725 0 0 0      
256 3 -1.19992230665555 212.09140877148732 -138.63117689241426 1.9725 0 0 0      
257 3 -1.19992230665555 212.02241351814592 -136.65988393980265 0.0 0 0 0      
258 1 1.20020711080428 214.06270172409896 -138.56218163907286 0.0 0 0 0      
259 2 2.40015524373887 215.9649994233693 -136.5218934331198 1.9725 0 0 0      
260 3 -1.19992230665555 213.9937064707576 -136.5908886864612 1.9725 0 0 0      
261 3 -1.19992230665555 216.03399467671076 -138.49318638573146 1.9725 0 0 0      
262 3 -1.19992230665555 215.9649994233693 -136.5218934331198 0.0 0 0 0      
263 1 1.20020711080428 218.0052876293224 -138.42419113239006 0.0 0 0 0      
264 2 2.40015524373887 219.90758532859255 -136.38390292643695 1.9725 0 0 0      
265 3 -1.19992230665555 217.9362923759809 -136.4528981797784 1.9725 0 0 0      
266 3 -1.19992230665555 219.976580581934 -138.35519587904864 1.9725 0 0 0      
267 3 -1.19992230665555 219.90758532859255 -136.38390292643695 0.0 0 0 0      
268 1 1.20020711080428 221.94787353454564 -138.28620062570724 0.0 0 0 0      
269 2 2.40015524373887 223.85017123381584 -136.24591241975418 1.9725 0 0 0      
270 3 -1.19992230665555 221.8788782812042 -136.31490767309558 1.9725 0 0 0      
271 3 -1.19992230665555 223.91916648715727 -138.21720537236584 1.9725 0 0 0      
272 3 -1.19992230665555 223.85017123381584 -136.24591241975418 0.0 0 0 0      
273 1 1.20020711080428 225.8904594397689 -138.1482101190244 0.0 0 0 0      
274 2 2.40015524373887 227.7927571390391 -136.10792191307135 1.9725 0 0 0      
275 3 -1.19992230665555 225.82146418642748 -136.17691716641275 1.9725 0 0 0      
276 3 -1.19992230665555 227.8617523923805 -138.079214865683 1.9725 0 0 0      
277 3 -1.19992230665555 227.7927571390391 -136.10792191307135 0.0 0 0 0      
278 1 1.20020711080428 229.83304534499223 -138.0102196123416 0.0 0 0 0      
279 2 2.40015524373887 231.73534304426244 -135.96993140638853 1.9725 0 0 0      
280 3 -1.19992230665555 229.7640500916508 -136.03892665972995 1.9725 0 0 0      
281 3 -1.19992230665555 231.80433829760383 -137.9412243590002 1.9725 0 0 0      
282 3 -1.19992230665555 231.73534304426244 -135.96993140638853 0.0 0 0 0      
283 1 1.20020711080428 233.77563125021555 -137.8722291056588 0.0 0 0 0      
284 2 2.40015524373887 235.67792894948576 -135.83194089970573 1.9725 0 0 0      
285 3 -1.19992230665555 233.7066359968741 -135.90093615304713 1.9725 0 0 0      
286 3 -1.19992230665555 235.7469242028272 -137.8032338523174 1.9725 0 0 0      
287 3 -1.19992230665555 235.67792894948576 -135.83194089970573 0.0 0 0 0      
288 1 1.20020711080428 1.025072335358061 -142.0710830947216 0.0 0 0 0      
289 2 2.40015524373887 2.927370034628325 -140.0307948887685 1.9725 0 0 0      
290 3 -1.19992230665555 0.956077082016634 -140.09979014210992 1.9725 0 0 0      
291 3 -1.19992230665555 2.996365287969695 -142.00208784138016 1.9725 0 0 0      
292 3 -1.19992230665555 2.927370034628325 -140.0307948887685 0.0 0 0 0      
293 1 1.20020711080428 4.967658240581329 -141.93309258803876 0.0 0 0 0      
294 2 2.40015524373887 6.869955939851593 -139.8928043820857 1.9725 0 0 0      
295 3 -1.19992230665555 4.898662987239959 -139.9617996354271 1.9725 0 0 0      
296 3 -1.19992230665555 6.93895119319302 -141.86409733469736 1.9725 0 0 0      
297 3 -1.19992230665555 6.869955939851593 -139.8928043820857 0.0 0 0 0      
298 1 1.20020711080428 8.910244145804654 -141.79510208135594 0.0 0 0 0      
299 2 2.40015524373887 10.812541845074918 -139.75481387540287 1.9725 0 0 0      
300 3 -1.19992230665555 8.841248892463227 -139.82380912874427 1.9725 0 0 0      
301 3 -1.19992230665555 10.881537098416288 -141.72610682801454 1.9725 0 0 0      
302 3 -1.19992230665555 10.812541845074918 -139.75481387540287 0.0 0 0 0      
303 1 1.20020711080428 12.85283005102798 -141.65711157467314 0.0 0 0 0      
304 2 2.40015524373887 14.755127750298186 -139.61682336872005 1.9725 0 0 0      
305 3 -1.19992230665555 12.783834797686552 -139.68581862206148 1.9725 0 0 0      
306 3 -1.19992230665555 14.824123003639611 -141.5881163213317 1.9725 0 0 0      
307 3 -1.19992230665555 14.755127750298186 -139.61682336872005 0.0 0 0 0      
308 1 1.20020711080428 16.795415956251247 -141.5191210679903 0.0 0 0 0      
309 2 2.40015524373887 18.69771365552151 -139.47883286203725 1.9725 0 0 0      
310 3 -1.19992230665555 16.72642070290982 -139.54782811537865 1.9725 0 0 0      
311 3 -1.19992230665555 18.76670890886288 -141.4501258146489 1.9725 0 0 0      
312 3 -1.19992230665555 18.69771365552151 -139.47883286203725 0.0 0 0 0      
313 1 1.20020711080428 20.73800186147457 -141.3811305613075 0.0 0 0 0      
314 2 2.40015524373887 22.64029956074478 -139.34084235535445 1.9725 0 0 0      
315 3 -1.19992230665555 20.669006608133145 -139.40983760869582 1.9725 0 0 0      
316 3 -1.19992230665555 22.709294814086206 -141.3121353079661 1.9725 0 0 0      
317 3 -1.19992230665555 22.64029956074478 -139.34084235535445 0.0 0 0 0      
318 1 1.20020711080428 24.68058776669784 -141.2431400546247 0.0 0 0 0      
319 2 2.40015524373887 26.582885465968104 -139.2028518486716 1.9725 0 0 0      
320 3 -1.19992230665555 24.61159251335647 -139.27184710201303 1.9725 0 0 0      
321 3 -1.19992230665555 26.651880719309474 -141.17414480128326 1.9725 0 0 0      
322 3 -1.19992230665555 26.582885465968104 -139.2028518486716 0.0 0 0 0      
323 1 1.20020711080428 28.623173671921165 -141.10514954794186 0.0 0 0 0      
324 2 2.40015524373887 30.52547137119137 -139.0648613419888 1.9725 0 0 0      
325 3 -1.19992230665555 28.55417841857974 -139.1338565953302 1.9725 0 0 0      
326 3 -1.19992230665555 30.5944666245328 -141.03615429460046 1.9725 0 0 0      
327 3 -1.19992230665555 30.52547137119137 -139.0648613419888 0.0 0 0 0      
328 1 1.20020711080428 32.56575957714443 -140.96715904125907 0.0 0 0 0      
329 2 2.40015524373887 34.4680572764147 -138.92687083530598 1.9725 0 0 0      
330 3 -1.19992230665555 32.49676432380306 -138.9958660886474 1.9725 0 0 0      
331 3 -1.19992230665555 34.53705252975607 -140.89816378791764 1.9725 0 0 0      
332 3 -1.19992230665555 34.4680572764147 -138.92687083530598 0.0 0 0 0      
333 1 1.20020711080428 36.50834548236776 -140.82916853457624 0.0 0 0 0      
334 2 2.40015524373887 38.41064318163802 -138.78888032862318 1.9725 0 0 0      
335 3 -1.19992230665555 36.43935022902633 -138.85787558196458 1.9725 0 0 0      
336 3 -1.19992230665555 38.47963843497939 -140.76017328123484 1.9725 0 0 0      
337 3 -1.19992230665555 38.41064318163802 -138.78888032862318 0.0 0 0 0      
338 1 1.20020711080428 40.45093138759103 -140.6911780278934 0.0 0 0 0      
339 2 2.40015524373887 42.35322908686129 -138.65088982194035 1.9725 0 0 0      
340 3 -1.19992230665555 40.381936134249656 -138.71988507528175 1.9725 0 0 0      
341 3 -1.19992230665555 42.42222434020272 -140.62218277455202 1.9725 0 0 0      
342 3 -1.19992230665555 42.35322908686129 -138.65088982194035 0.0 0 0 0      
343 1 1.20020711080428 44.39351729281435 -140.55318752121062 0.0 0 0 0      
344 2 2.40015524373887 46.295814992084615 -138.51289931525753 1.9725 0 0 0      
345 3 -1.19992230665555 44.324522039472924 -138.58189456859895 1.9725 0 0 0      
346 3 -1.19992230665555 46.36481024542599 -140.4841922678692 1.9725 0 0 0      
347 3 -1.19992230665555 46.295814992084615 -138.51289931525753 0.0 0 0 0      
348 1 1.20020711080428 48.33610319803762 -140.4151970145278 0.0 0 0 0      
349 2 2.40015524373887 50.23840089730788 -138.37490880857473 1.9725 0 0 0      
350 3 -1.19992230665555 48.26710794469625 -138.44390406191613 1.9725 0 0 0      
351 3 -1.19992230665555 50.30739615064931 -140.3462017611864 1.9725 0 0 0      
352 3 -1.19992230665555 50.23840089730788 -138.37490880857473 0.0 0 0 0      
353 1 1.20020711080428 52.27868910326095 -140.27720650784497 0.0 0 0 0      
354 2 2.40015524373887 54.18098680253121 -138.2369183018919 1.9725 0 0 0      
355 3 -1.19992230665555 52.20969384991952 -138.3059135552333 1.9725 0 0 0      
356 3 -1.19992230665555 54.24998205587258 -140.20821125450357 1.9725 0 0 0      
357 3 -1.19992230665555 54.18098680253121 -138.2369183018919 0.0 0 0 0      
358 1 1.20020711080428 56.22127500848427 -140.13921600116217 0.0 0 0 0      
359 2 2.40015524373887 58.12357270775448 -138.09892779520908 1.9725 0 0 0      
360 3 -1.19992230665555 56.15227975514284 -138.1679230485505 1.9725 0 0 0      
361 3 -1.19992230665555 58.192567961095904 -140.07022074782074 1.9725 0 0 0      
362 3 -1.19992230665555 58.12357270775448 -138.09892779520908 0.0 0 0 0      
363 1 1.20020711080428 60.16386091370754 -140.00122549447934 0.0 0 0 0      
364 2 2.40015524373887 62.0661586129778 -137.96093728852628 1.9725 0 0 0      
365 3 -1.19992230665555 60.09486566036611 -138.02993254186768 1.9725 0 0 0      
366 3 -1.19992230665555 62.13515386631917 -139.93223024113794 1.9725 0 0 0      
367 3 -1.19992230665555 62.0661586129778 -137.96093728852628 0.0 0 0 0      