LAMMPS data file via write_data, version 17 Apr 2024, timestep = 15, units = metal

28700 atoms
3 atom types

-0.1062140281616198 237.6266670948396 xlo xhi
-142.37289884232524 47.36471761565386 ylo yhi
0.008088859363837776 7.881911140636159 zlo zhi

Masses

1 87.62
2 47.867
3 15.999

Atoms # charge

288 1 1.20020711080428 -0.03381428149949887 -140.99895643798567 0.008088897274028317 0 0 0
289 2 2.40015524373887 2.046465336069856 -139.3140172077763 1.9765444842460438 0 0 0
291 3 -1.19992230665555 1.8737893127400602 -141.213573991927 1.9765444941359733 0 0 0
292 3 -1.19992230665555 2.0885494531753364 -139.34054239009274 0.008088917095831169 0 0 0
293 1 1.20020711080428 4.016532799736781 -141.31511842556176 0.008088957162381243 0 0 0
295 3 -1.19992230665555 4.16664895112947 -139.48565614734952 1.9765444957314011 0 0 0
294 2 2.40015524373887 6.334651879675466 -139.70899525549913 1.9765445092136642 0 0 0
296 3 -1.19992230665555 6.089607031486979 -141.5729686245377 1.976544531238386 0 0 0
297 3 -1.19992230665555 6.27968292841803 -139.7033506553986 0.008088940169170547 0 0 0
298 1 1.20020711080428 8.275709965614588 -141.6333620893887 0.00808898068939249 0 0 0
300 3 -1.19992230665555 8.348021449380655 -139.8127574077284 1.9765445070525733 0 0 0
299 2 2.40015524373887 10.412345553937472 -139.7651603700281 1.9765445031795716 0 0 0
301 3 -1.19992230665555 10.385075257479503 -141.66151669753881 1.976544525497573 0 0 0
302 3 -1.19992230665555 10.385585622005845 -139.74517742667652 0.008088933165679959 0 0 0
303 1 1.20020711080428 12.419493679179267 -141.57226460657387 0.008088949341550489 0 0 0
305 3 -1.19992230665555 12.421430673607764 -139.69556628113583 1.9765444897901676 0 0 0
304 2 2.40015524373887 14.445205339643037 -139.64107753976185 1.9765444787912267 0 0 0
306 3 -1.19992230665555 14.44723205963086 -141.55335918701198 1.9765444882529928 0 0 0
307 3 -1.19992230665555 14.4274247166765 -139.62291504002326 0.008088908236212953 0 0 0
308 1 1.20020711080428 16.452318867243466 -141.44950809210334 0.008088908303354904 0 0 0
309 2 2.40015524373887 18.431193982409035 -139.4868650228931 1.9765444573325146 0 0 0
310 3 -1.19992230665555 16.435170045281893 -139.55834789096363 1.9765444671238606 0 0 0
311 3 -1.19992230665555 18.464469823268903 -141.4131492745647 1.9765444600031146 0 0 0
312 3 -1.19992230665555 18.419798193139286 -139.46614595037002 0.008088886933601356 0 0 0
313 1 1.20020711080428 20.45117218304255 -141.2895781563737 0.008088883325802234 0 0 0
314 2 2.40015524373887 22.393952635535854 -139.30493463764773 1.9765444439968713 0 0 0
315 3 -1.19992230665555 20.408658351130065 -139.3848982699252 1.9765444502438199 0 0 0
316 3 -1.19992230665555 22.449925095917276 -141.23908711388012 1.9765444444565778 0 0 0
317 3 -1.19992230665555 22.384887359016048 -139.28386218359225 0.008088873696802175 0 0 0
318 1 1.20020711080428 24.426479830619158 -141.10616213734144 0.008088870568559269 0 0 0
320 3 -1.19992230665555 24.364636350507144 -139.19370803814718 1.9765444402091954 0 0 0
321 3 -1.19992230665555 26.415926120660767 -141.04858159304035 1.9765444367075742 0 0 0
323 1 1.20020711080428 28.38673063316421 -140.90940942000609 0.008088864566161078 0 0 0
319 2 2.40015524373887 26.342948733123887 -139.10904576545963 1.9765444367791993 0 0 0
326 3 -1.19992230665555 30.368775423917338 -140.84777280084145 1.9765444330244146 0 0 0
328 1 1.20020711080428 32.33190031581779 -140.70887583300865 0.008088861789430083 0 0 0
331 3 -1.19992230665555 34.30766321171288 -140.6555519700633 1.9765444312749738 0 0 0
333 1 1.20020711080428 36.26733479010589 -140.52626588383694 0.008088860513941762 0 0 0
336 3 -1.19992230665555 38.24204210552056 -140.4779968932821 1.97654443044429 0 0 0
338 1 1.20020711080428 40.19839032028778 -140.37734307198627 0.008088859906833838 0 0 0
341 3 -1.19992230665555 42.1617239811728 -140.37092387700534 1.9765444300554593 0 0 0
343 1 1.20020711080428 44.229735959443595 -140.398748361046 0.008088859643487793 0 0 0
346 3 -1.19992230665555 46.35061959350516 -141.2547541169259 1.976544429629593 0 0 0
348 1 1.20020711080428 48.15559275440746 -140.27153287103314 0.008088859421336992 0 0 0
351 3 -1.19992230665555 49.63072998447607 -139.70379986707223 1.9765444297493573 0 0 0
79 3 -1.19992230665555 51.810688340574025 -141.59478198389456 1.9765444296666002 0 0 0
353 1 1.20020711080428 51.62926833318116 -139.83362182243482 0.008088859378039702 0 0 0
78 2 2.40015524373887 53.70173080097078 -141.45992279481584 1.9765444296839343 0 0 0
356 3 -1.19992230665555 53.76601046379173 -139.54083119677125 1.976544429693115 0 0 0
10957 3 -1.19992230665555 53.725677597203195 -141.3481362185226 3.9449999999995966 0 0 0
81 2 2.40015524373887 57.64659146881717 -141.36435655566072 1.9765444296853694 0 0 0
82 3 -1.19992230665555 55.71674553172291 -141.61169902955248 1.976544429680469 0 0 0
83 3 -1.19992230665555 57.66654299207766 -141.23697129749502 0.008088859366000012 0 0 0
358 1 1.20020711080428 55.653470708320285 -139.56225696710072 0.008088859373681272 0 0 0
361 3 -1.19992230665555 57.65699288978515 -139.45076680783853 1.9765444296879533 0 0 0
85 3 -1.19992230665555 59.60285681745941 -141.61849468860794 1.9765444296823464 0 0 0
363 1 1.20020711080428 59.59949507395801 -139.47116824315577 0.0080888593688208 0 0 0
84 2 2.40015524373887 61.54302058307631 -141.3704341816026 1.9765444296837866 0 0 0
86 3 -1.19992230665555 61.55101969705601 -141.24123645877978 0.008088859365108971 0 0 0
366 3 -1.19992230665555 61.56375571379094 -139.4395721044775 1.9765444296847303 0 0 0
88 3 -1.19992230665555 63.49229729885142 -141.637991742011 1.9765444296821746 0 0 0
368 1 1.20020711080428 63.513297818322755 -139.4638254439044 0.008088859365902347 0 0 0
87 2 2.40015524373887 65.45278452395297 -141.37873818148265 1.9765444296825352 0 0 0
89 3 -1.19992230665555 65.45140598932443 -141.24739318843103 0.008088859364274838 0 0 0
91 3 -1.19992230665555 67.40575378256779 -141.64465057770903 1.9765444296818837 0 0 0
371 3 -1.19992230665555 65.47099012485678 -139.44110816471365 1.9765444296828591 0 0 0
373 1 1.20020711080428 67.43489812194979 -139.46510988436336 0.00808885936411159 0 0 0
90 2 2.40015524373887 69.37932046440572 -141.3840478459911 1.9765444296815704 0 0 0
376 3 -1.19992230665555 69.3965553757598 -139.44298742375955 1.9765444296814736 0 0 0
94 3 -1.19992230665555 71.33390628962219 -141.65164121117013 1.9765444296815262 0 0 0
10969 3 -1.19992230665555 69.37211271486757 -141.25290555420312 3.944999999999712 0 0 0
11255 1 1.20020711080428 71.37000895619455 -139.4664805132164 3.9449999999986267 0 0 0
93 2 2.40015524373887 73.31959385201893 -141.3892154372699 1.976544429680327 0 0 0
381 3 -1.19992230665555 73.33410380015341 -139.44438315629168 1.9765444296797634 0 0 0
10972 3 -1.19992230665555 73.30817455707734 -141.25738310352472 3.9449999999987306 0 0 0
96 2 2.40015524373887 77.27290805038562 -141.39617478295085 1.9765444296777959 0 0 0
97 3 -1.19992230665555 75.27624493320053 -141.65942942454038 1.9765444296808792 0 0 0
386 3 -1.19992230665555 77.28382337930368 -139.44671903714237 1.9765444296763273 0 0 0
10975 3 -1.19992230665555 77.25779899120434 -141.26362390478064 3.944999999997139 0 0 0
11260 1 1.20020711080428 75.31840656357707 -139.46883559119757 3.9449999999959386 0 0 0
100 3 -1.19992230665555 79.2299194742538 -141.6697448506899 1.976544429679427 0 0 0
99 2 2.40015524373887 81.23977805219413 -141.40663320522023 1.9765444296719383 0 0 0
391 3 -1.19992230665555 81.24670186247317 -139.45077669018335 1.976544429668465 0 0 0
11265 1 1.20020711080428 79.28043322981287 -139.47291872659656 3.944999999989347 0 0 0
10978 3 -1.19992230665555 81.2207201727541 -141.2725528374299 3.9449999999898697 0 0 0
103 3 -1.19992230665555 83.1974895027792 -141.6870691039209 1.9765444296759098 0 0 0
11270 1 1.20020711080428 83.25767090263888 -139.48007829743253 3.9449999999823264 0 0 0
102 2 2.40015524373887 85.22305280748881 -141.42521968374422 1.9765444296580275 0 0 0
106 3 -1.19992230665555 87.17556180069063 -141.71725424410204 1.9765444296671388 0 0 0
396 3 -1.19992230665555 85.22523146837509 -139.45392641989352 1.9765444296495158 0 0 0
105 2 2.40015524373887 89.18177269712794 -141.4152712239061 1.9765444296220405 0 0 0
401 3 -1.19992230665555 89.18907432331383 -139.44060642584398 1.9765444296034935 0 0 0
10984 3 -1.19992230665555 89.14970262450213 -141.2920673116908 3.9449999999983456 0 0 0
108 2 2.40015524373887 93.65238358076762 -141.32640558826967 1.976544429405618 0 0 0
109 3 -1.19992230665555 91.09186489030496 -141.72300685314062 1.976544429650814 0 0 0
406 3 -1.19992230665555 93.28212008278389 -139.3650211703871 1.9765444294203645 0 0 0
10987 3 -1.19992230665555 93.45551141237239 -141.22599951654843 3.9449999998192986 0 0 0
11280 1 1.20020711080428 91.32454629181903 -139.58190374072024 3.9449999997670346 0 0 0
112 3 -1.19992230665555 95.52339723871562 -141.22546221693068 1.9765444291793282 0 0 0
111 2 2.40015524373887 97.53894462073414 -140.8796414603725 1.9765444288727914 0 0 0
10990 3 -1.19992230665555 97.48111116619711 -140.94934021720664 3.9449999992913543 0 0 0
11285 1 1.20020711080428 95.38168031607266 -139.20171574710642 3.9449999996333225 0 0 0
115 3 -1.19992230665555 99.45257241998158 -141.0112444741775 1.9765444285793399 0 0 0
114 2 2.40015524373887 101.50532604640678 -141.0800033086035 1.9765444282258076 0 0 0
120 3 -1.19992230665555 103.50959935921301 -140.47843253388402 1.9765444256038451 0 0 0
10994 3 -1.19992230665555 101.5017179500748 -140.79239420922497 3.9449999984032122 0 0 0
119 2 2.40015524373887 105.34770013039056 -140.06645163808938 1.9765444247941695 0 0 0
125 3 -1.19992230665555 107.16436557244765 -139.75196713952568 1.9765444195462303 0 0 0
10999 3 -1.19992230665555 105.36683026942434 -140.28616937547474 3.9449999944002356 0 0 0
124 2 2.40015524373887 109.11739550616515 -139.69735989331372 1.9765444144675046 0 0 0
126 3 -1.19992230665555 109.14449487781158 -141.53152486241592 1.976544414687096 0 0 0
11000 1 1.20020711080428 107.66905827225412 -142.1744375965283 3.944999991862066 0 0 0
11004 3 -1.19992230665555 109.13775835579497 -139.63567288498038 3.944999983832551 0 0 0
129 2 2.40015524373887 113.01070014179129 -139.53056016122414 1.9765443813732355 0 0 0
130 3 -1.19992230665555 111.0886225767647 -139.558891448883 1.9765443998860242 0 0 0
131 3 -1.19992230665555 113.15528891907613 -141.37663509119108 1.9765443402497684 0 0 0
11005 1 1.20020711080428 110.95828666534402 -141.6562724265826 3.9449999916239302 0 0 0
11009 3 -1.19992230665555 113.0551902254713 -139.4641093268843 3.9449999498952484 0 0 0
135 3 -1.19992230665555 115.04102220514059 -139.39141828224186 1.9765443821814586 0 0 0
134 2 2.40015524373887 116.95382606366964 -139.39163935998252 1.9765443759755732 0 0 0
136 3 -1.19992230665555 117.06769408090601 -141.28931787291677 1.9765443501164217 0 0 0
11010 1 1.20020711080428 114.94839140566287 -141.38323550893668 3.944999898558454 0 0 0
11014 3 -1.19992230665555 116.9983142186135 -139.35984176337746 3.9449999471139026 0 0 0
140 3 -1.19992230665555 118.97440975963687 -139.29534947123483 1.976544384118693 0 0 0
11015 1 1.20020711080428 118.92029813404825 -141.23215575739368 3.9449999155275757 0 0 0
139 2 2.40015524373887 120.89705918753661 -139.28716492929814 1.976544388630696 0 0 0
141 3 -1.19992230665555 120.97730843181705 -141.21055161468328 1.9765443759845713 0 0 0
145 3 -1.19992230665555 122.90298540417238 -139.2182124682242 1.9765443973502101 0 0 0
11019 3 -1.19992230665555 120.93293474297818 -139.2668352418365 3.94499995974391 0 0 0
11020 1 1.20020711080428 122.85389740855615 -141.1532790280816 3.944999947969913 0 0 0
144 2 2.40015524373887 124.83426891477458 -139.21169732684473 1.9765444042324136 0 0 0
146 3 -1.19992230665555 124.89608857329134 -141.14950735041703 1.9765443993023195 0 0 0
150 3 -1.19992230665555 126.83614889759271 -139.15118022155303 1.9765444103279777 0 0 0
11024 3 -1.19992230665555 124.86487002768514 -139.1946720309551 3.9449999749114792 0 0 0
11025 1 1.20020711080428 126.80140875836288 -141.07942626162932 3.9449999725176546 0 0 0
149 2 2.40015524373887 128.77731656845853 -139.12750523399995 1.976544415778892 0 0 0
151 3 -1.19992230665555 128.8457763941549 -141.07063595786425 1.9765444143534983 0 0 0
11029 3 -1.19992230665555 128.8025016148311 -139.11009174305102 3.94499998621025 0 0 0
156 3 -1.19992230665555 132.80508341027544 -140.96458535544906 1.9765444225214173 0 0 0
11030 1 1.20020711080428 130.7635460472501 -140.9811327548913 3.94499998702354 0 0 0
11035 1 1.20020711080428 134.73111322816303 -140.8586621325082 3.9449999942468685 0 0 0
161 3 -1.19992230665555 136.76764192363518 -140.83248496595604 1.9765444264367427 0 0 0
11040 1 1.20020711080428 138.700017665959 -140.7122486399405 3.9449999974834573 0 0 0
166 3 -1.19992230665555 140.73022298342272 -140.67503105922887 1.9765444282149318 0 0 0
11045 1 1.20020711080428 142.66446326679022 -140.53779764550654 3.944999998890295 0 0 0
171 3 -1.19992230665555 144.6828210942364 -140.49766767468586 1.9765444290082714 0 0 0
176 3 -1.19992230665555 148.61772342548076 -140.32119451986213 1.9765444293668162 0 0 0
11050 1 1.20020711080428 146.61399078749616 -140.36717391622778 3.9449999994984086 0 0 0
181 3 -1.19992230665555 152.5457407798431 -140.14170501554796 1.9765444295326942 0 0 0
11055 1 1.20020711080428 150.55406997667967 -140.19363744375866 3.9449999997691094 0 0 0
11060 1 1.20020711080428 154.48731970571458 -140.01601552265157 3.944999999892156 0 0 0
186 3 -1.19992230665555 156.4611293858757 -139.95099247881564 1.9765444296096235 0 0 0
11065 1 1.20020711080428 158.4074413433085 -139.9885813834083 3.9449999999456686 0 0 0
191 3 -1.19992230665555 160.4093078004366 -139.61131884735917 1.9765444296528192 0 0 0
11070 1 1.20020711080428 162.03474039646176 -139.4524264259906 3.9449999999766208 0 0 0
4 2 2.40015524373887 164.2242105465281 -141.26482537446756 1.9765444296725778 0 0 0
196 3 -1.19992230665555 164.14419698777837 -139.4422985704873 1.9765444296743016 0 0 0
10883 3 -1.19992230665555 163.92909224111656 -141.12115437617356 3.944999999996266 0 0 0
7 2 2.40015524373887 168.01103666231862 -141.33390412939747 1.9765444296796595 0 0 0
8 3 -1.19992230665555 166.03429525744056 -141.56749953275934 1.9765444296812607 0 0 0
201 3 -1.19992230665555 168.039961326006 -139.42003142526005 1.9765444296786354 0 0 0
10886 3 -1.19992230665555 167.970068128575 -141.20894821152476 3.9449999999984855 0 0 0
11075 1 1.20020711080428 166.09914788446278 -139.34579134026467 3.9449999999928296 0 0 0
11 3 -1.19992230665555 169.9253843695999 -141.60958641595138 1.9765444296816201 0 0 0
10 2 2.40015524373887 171.9045008030497 -141.3506090603139 1.9765444296808374 0 0 0
206 3 -1.19992230665555 171.93619983869957 -139.42213976901047 1.9765444296804424 0 0 0
11080 1 1.20020711080428 169.98423564022102 -139.42180209180734 3.944999999997344 0 0 0
10889 3 -1.19992230665555 171.89261331414184 -141.21896813828795 3.944999999999282 0 0 0
14 3 -1.19992230665555 173.85994908583484 -141.60401863434123 1.9765444296816064 0 0 0
11085 1 1.20020711080428 173.89062360056298 -139.43899215399253 3.9449999999986454 0 0 0
13 2 2.40015524373887 175.8302312764002 -141.34970414656723 1.9765444296810986 0 0 0
17 3 -1.19992230665555 177.79709736151474 -141.608301119088 1.976544429681327 0 0 0
211 3 -1.19992230665555 175.86954349747555 -139.41669523742132 1.9765444296808874 0 0 0
10892 3 -1.19992230665555 175.82888876315803 -141.2191555035702 3.944999999999329 0 0 0
11090 1 1.20020711080428 177.81841718256305 -139.4369362776414 3.944999999998755 0 0 0
16 2 2.40015524373887 179.76556018323524 -141.34932159618256 1.9765444296806751 0 0 0
216 3 -1.19992230665555 179.8048956089363 -139.41161228948167 1.976544429680498 0 0 0
20 3 -1.19992230665555 181.7403436739346 -141.60901944031005 1.9765444296805217 0 0 0
10895 3 -1.19992230665555 179.7684159851905 -141.21737149903743 3.9449999999988847 0 0 0
11095 1 1.20020711080428 181.75601973791586 -139.43414915873868 3.9449999999978673 0 0 0
19 2 2.40015524373887 183.70883364645786 -141.35032050419807 1.9765444296792505 0 0 0
221 3 -1.19992230665555 183.75013603845716 -139.40947920372912 1.9765444296788603 0 0 0
10898 3 -1.19992230665555 183.7153351341702 -141.2180928046517 3.9449999999974468 0 0 0
22 2 2.40015524373887 187.66238277022364 -141.35687964467618 1.9765444296755887 0 0 0
23 3 -1.19992230665555 185.6909490905789 -141.614236704823 1.9765444296784496 0 0 0
226 3 -1.19992230665555 187.70436843235058 -139.41256689708266 1.9765444296747883 0 0 0
10901 3 -1.19992230665555 187.671465937535 -141.22400453656033 3.9449999999939434 0 0 0
11100 1 1.20020711080428 185.70430196002175 -139.4354678659292 3.944999999995181 0 0 0
26 3 -1.19992230665555 189.6534269567045 -141.62419020988435 1.9765444296736114 0 0 0
25 2 2.40015524373887 191.62831906487187 -141.36761458180897 1.9765444296669739 0 0 0
231 3 -1.19992230665555 191.66986782835363 -139.42009730952253 1.9765444296650034 0 0 0
11105 1 1.20020711080428 189.66345077875096 -139.44167705009932 3.944999999988655 0 0 0
10904 3 -1.19992230665555 191.64091477605152 -141.23433116602624 3.9449999999855887 0 0 0
29 3 -1.19992230665555 193.62894942875107 -141.64026214359035 1.9765444296623276 0 0 0
11110 1 1.20020711080428 193.63530597974875 -139.4510996653051 3.9449999999733496 0 0 0
28 2 2.40015524373887 195.60770136263682 -141.38551268959043 1.9765444296471224 0 0 0
32 3 -1.19992230665555 197.62032885136784 -141.66728889450192 1.9765444296362984 0 0 0
236 3 -1.19992230665555 195.64857567750448 -139.43283576464944 1.976544429642313 0 0 0
10907 3 -1.19992230665555 195.62487072246634 -141.25143052229865 3.9449999999663663 0 0 0
11115 1 1.20020711080428 197.6197685099839 -139.46325587925935 3.944999999937881 0 0 0
31 2 2.40015524373887 199.60179100974906 -141.40888441486703 1.976544429601837 0 0 0
35 3 -1.19992230665555 201.63141726130863 -141.69693705809712 1.9765444295769292 0 0 0
241 3 -1.19992230665555 199.6358992035363 -139.44760730670646 1.97654442959019 0 0 0
10910 3 -1.19992230665555 199.62534132436613 -141.27403173207227 3.9449999999222736 0 0 0
11120 1 1.20020711080428 201.6180460131614 -139.47163095084926 3.9449999998568885 0 0 0
34 2 2.40015524373887 203.61855305844688 -141.42719666798357 1.976544429498723 0 0 0
246 3 -1.19992230665555 203.6447452089857 -139.45175018651963 1.9765444294714554 0 0 0
10913 3 -1.19992230665555 203.64597480860573 -141.29252705398957 3.9449999998222336 0 0 0
37 2 2.40015524373887 207.74382096701737 -141.42023324776454 1.9765444292544874 0 0 0
38 3 -1.19992230665555 205.6662622051754 -141.73573894813998 1.9765444294419072 0 0 0
251 3 -1.19992230665555 207.6140776137412 -139.35969218326835 1.9765444291890415 0 0 0
10916 3 -1.19992230665555 207.72018342935579 -141.2684748348431 3.9449999995779823 0 0 0
11125 1 1.20020711080428 205.63247458212768 -139.48272892138152 3.944999999673886 0 0 0
41 3 -1.19992230665555 209.76905766034196 -141.3722674398288 1.9765444290745537 0 0 0
11130 1 1.20020711080428 209.53243227816844 -139.27724664015983 3.9449999993346596 0 0 0
40 2 2.40015524373887 211.63785630759594 -141.02175565955855 1.9765444288186849 0 0 0
45 3 -1.19992230665555 213.48696458656397 -141.5545304463391 1.9765444287611134 0 0 0
256 3 -1.19992230665555 211.71238429123153 -139.11342313159403 1.9765444285843832 0 0 0
10919 3 -1.19992230665555 211.69596404244228 -141.0502830864752 3.9449999991397102 0 0 0
44 2 2.40015524373887 216.28521026702845 -140.64654070304505 1.9765444276272477 0 0 0
50 3 -1.19992230665555 218.04413809280973 -140.22502066830714 1.9765444264034162 0 0 0
10924 3 -1.19992230665555 216.02043086795024 -140.7124753286457 3.944999997859199 0 0 0
49 2 2.40015524373887 219.92943718802505 -139.9824974335301 1.9765444253675544 0 0 0
51 3 -1.19992230665555 220.28864287290577 -141.97135799183428 1.9765444261404432 0 0 0
10929 3 -1.19992230665555 219.91686986735704 -140.0244465850077 3.9449999956816355 0 0 0
54 2 2.40015524373887 223.78507493359177 -139.64816222095172 1.9765444215241312 0 0 0
55 3 -1.19992230665555 221.82946234108618 -139.71548635518434 1.9765444240208176 0 0 0
56 3 -1.19992230665555 223.7511304461843 -141.61166622866648 1.9765444225527982 0 0 0
10930 1 1.20020711080428 221.91489163153568 -141.61469746565135 3.9449999953902313 0 0 0
10934 3 -1.19992230665555 223.79913795048063 -139.69610059691482 3.944999991759321 0 0 0
60 3 -1.19992230665555 225.74082352046915 -139.59462796271046 1.9765444198560178 0 0 0
59 2 2.40015524373887 227.79053776867013 -139.39666243857522 1.9765444152541736 0 0 0
10935 1 1.20020711080428 225.95616086002758 -141.33153490295962 3.9449999903637893 0 0 0
10939 3 -1.19992230665555 227.75387370512945 -139.42583975829396 3.944999985221685 0 0 0
61 3 -1.19992230665555 227.89621336895715 -141.34322203881558 1.9765444156287373 0 0 0
65 3 -1.19992230665555 229.7260663450537 -139.25097823579156 1.9765444154097223 0 0 0
10940 1 1.20020711080428 229.95636894487325 -141.0780623450864 3.944999986398415 0 0 0
64 2 2.40015524373887 231.7866578144463 -139.1483110771379 1.9765444114805588 0 0 0
66 3 -1.19992230665555 231.79649127370953 -141.11556669730106 1.9765444117066218 0 0 0
10944 3 -1.19992230665555 231.74025456867872 -139.1717945895642 3.9449999808890253 0 0 0
10945 1 1.20020711080428 233.85312879136606 -140.95300768261745 3.9449999955456203 0 0 0
71 3 -1.19992230665555 235.71185707647467 -141.02224100490992 1.976544426974307 0 0 0
290 3 -1.19992230665555 -0.0012297066678368823 -139.0906880948988 1.9765444519661224 0 0 0
589 1 1.20020711080428 0.08484757683932381 -137.0306920273503 0.00808886743603157 0 0 0
592 3 -1.19992230665555 2.2048058524260647 -137.4294046472943 1.9765445047370263 0 0 0
594 1 1.20020711080428 4.417479273690036 -137.71806519003079 0.00808892360708819 0 0 0
596 3 -1.19992230665555 4.596501895510975 -135.94506294065448 1.9765444951215554 0 0 0
597 3 -1.19992230665555 6.525728019138761 -137.81414041105768 1.9765445057424917 0 0 0
599 1 1.20020711080428 8.486385386354481 -137.81387512537722 0.00808892351752615 0 0 0
595 2 2.40015524373887 6.5959573927293125 -135.87583117880004 1.9765445025932986 0 0 0
598 3 -1.19992230665555 6.572163662644279 -135.87004451099864 0.008088932523106766 0 0 0
601 3 -1.19992230665555 8.562280033271055 -135.86586323830812 1.976544488851164 0 0 0
602 3 -1.19992230665555 10.447296698989371 -137.81309752759068 1.9765444930225462 0 0 0
604 1 1.20020711080428 12.46409526387776 -137.74617190924135 0.008088907703944145 0 0 0
600 2 2.40015524373887 10.524847232348082 -135.83719243549987 1.9765444842450302 0 0 0
603 3 -1.19992230665555 10.522700738695887 -135.8378896166476 0.008088914117529553 0 0 0
607 3 -1.19992230665555 14.449938019120049 -137.67850440161584 1.9765444709765239 0 0 0
609 1 1.20020711080428 16.43373585130583 -137.5927175479877 0.008088889807447252 0 0 0
612 3 -1.19992230665555 18.39919027591189 -137.5063038162759 1.976544453161851 0 0 0
614 1 1.20020711080428 20.377390285247596 -137.41362947636398 0.008088876402803705 0 0 0
617 3 -1.19992230665555 22.3375402460036 -137.3165965248525 1.97654444209175 0 0 0
619 1 1.20020711080428 24.31101605631109 -137.2189917406961 0.008088868296281625 0 0 0
322 3 -1.19992230665555 26.33598738252281 -139.08854028064576 0.008088866496442117 0 0 0
325 3 -1.19992230665555 28.310040592608004 -138.99319401010453 1.9765444348858388 0 0 0
622 3 -1.19992230665555 26.26915150173102 -137.11792065025205 1.9765444359735067 0 0 0
624 1 1.20020711080428 28.241208977980488 -137.0181680686682 0.00808886388411366 0 0 0
324 2 2.40015524373887 30.284421227539514 -138.90669631686873 1.9765444331386026 0 0 0
327 3 -1.19992230665555 30.279111261451465 -138.88746067531557 0.008088862846460192 0 0 0
330 3 -1.19992230665555 32.25166154238813 -138.7924421697116 1.9765444322148114 0 0 0
627 3 -1.19992230665555 30.200761898271537 -136.9185177016213 1.9765444328059127 0 0 0
629 1 1.20020711080428 32.17286287960752 -136.81970525174467 0.008088861608355227 0 0 0
329 2 2.40015524373887 34.22351972161996 -138.71338871554735 1.9765444313543021 0 0 0
332 3 -1.19992230665555 34.22118314547218 -138.69620335237704 0.008088861050232987 0 0 0
632 3 -1.19992230665555 34.13709821657221 -136.72790245641042 1.9765444312141613 0 0 0
334 2 2.40015524373887 38.16520838464228 -138.53798835177463 1.9765444304903639 0 0 0
335 3 -1.19992230665555 36.19246429844213 -138.60756614818382 1.9765444309113935 0 0 0
337 3 -1.19992230665555 38.16976508694244 -138.5213878570006 0.008088860179149435 0 0 0
634 1 1.20020711080428 36.10845389557095 -136.6359501540338 0.008088860467611642 0 0 0
637 3 -1.19992230665555 38.07702542795336 -136.55713787305083 1.9765444304305615 0 0 0
340 3 -1.19992230665555 40.1490955929769 -138.44852955042327 1.9765444302734982 0 0 0
639 1 1.20020711080428 40.05268062368204 -136.47579721510027 0.008088859909074871 0 0 0
642 3 -1.19992230665555 42.059581225818405 -136.40085796645135 1.9765444300364783 0 0 0
339 2 2.40015524373887 42.12109640033913 -138.4406451833546 1.9765444300723067 0 0 0
342 3 -1.19992230665555 42.13277420438203 -138.389298567094 0.008088859755019197 0 0 0
345 3 -1.19992230665555 44.12214824221056 -138.41799652583936 1.9765444299517547 0 0 0
644 1 1.20020711080428 43.84419593556997 -136.19414360597645 0.008088859631836401 0 0 0
344 2 2.40015524373887 45.93156383474107 -137.9438630178541 1.9765444298652153 0 0 0
347 3 -1.19992230665555 45.935286144809254 -138.29631961754276 0.008088859557110582 0 0 0
350 3 -1.19992230665555 47.736889499919144 -137.85564497332862 1.9765444298263777 0 0 0
647 3 -1.19992230665555 45.703684933799394 -136.1128959939876 1.976544429866611 0 0 0
649 1 1.20020711080428 47.86242329595959 -135.93764749681577 0.008088859479684936 0 0 0
349 2 2.40015524373887 49.75694951594326 -137.84840634011996 1.9765444297591457 0 0 0
352 3 -1.19992230665555 49.727170608201206 -137.78899269044894 0.008088859444959176 0 0 0
652 3 -1.19992230665555 49.69820999343596 -135.84659211797805 1.9765444297621149 0 0 0
355 3 -1.19992230665555 51.683075420553536 -137.7516598322288 1.9765444297368566 0 0 0
354 2 2.40015524373887 53.67277148708537 -137.66357386252676 1.976544429709836 0 0 0
357 3 -1.19992230665555 53.66918112439602 -137.60922844753458 0.0080888593919127 0 0 0
359 2 2.40015524373887 57.620496770357605 -137.52985478218952 1.97654442969348 0 0 0
360 3 -1.19992230665555 55.65516196830481 -137.54927939618744 1.9765444297021382 0 0 0
362 3 -1.19992230665555 57.6253412810839 -137.51050044985615 0.008088859375489903 0 0 0
365 3 -1.19992230665555 59.59757053795778 -137.49644381002588 1.9765444296902253 0 0 0
364 2 2.40015524373887 61.55773745800372 -137.48615069416678 1.976544429686841 0 0 0
367 3 -1.19992230665555 61.558891865595015 -137.47735279039358 0.008088859368781854 0 0 0
370 3 -1.19992230665555 63.5196497359022 -137.476411492751 1.9765444296852295 0 0 0
369 2 2.40015524373887 65.48356919642414 -137.47279720933312 1.9765444296835686 0 0 0
372 3 -1.19992230665555 65.48148824323515 -137.46689635598779 0.008088859365500857 0 0 0
375 3 -1.19992230665555 67.4424682202019 -137.47379205436354 1.9765444296824102 0 0 0
374 2 2.40015524373887 69.41467882192552 -137.46836565156735 1.9765444296812738 0 0 0
380 3 -1.19992230665555 71.37508355030242 -137.47110878833135 1.9765444296798318 0 0 0
11254 3 -1.19992230665555 69.40940659241669 -137.46237784983276 3.9449999999993395 0 0 0
379 2 2.40015524373887 73.35603200692375 -137.4650390187924 1.976544429678364 0 0 0
11259 3 -1.19992230665555 73.34742280007266 -137.4589130870802 3.9449999999964716 0 0 0
384 2 2.40015524373887 77.30839807973393 -137.46283454452282 1.976544429672713 0 0 0
385 3 -1.19992230665555 75.31846169291848 -137.4690472491828 1.9765444296755466 0 0 0
11264 3 -1.19992230665555 77.29663106235951 -137.4560333391879 3.9449999999906082 0 0 0
390 3 -1.19992230665555 79.27285926650082 -137.46732358971533 1.97654442966606 0 0 0
389 2 2.40015524373887 81.27181771504672 -137.46091149682294 1.9765444296596406 0 0 0
11269 3 -1.19992230665555 81.25612311292791 -137.4516644077409 3.9449999999786787 0 0 0
395 3 -1.19992230665555 83.2366058898816 -137.4634734370371 1.9765444296433634 0 0 0
394 2 2.40015524373887 85.24323499172111 -137.44921974898554 1.9765444296279782 0 0 0
400 3 -1.19992230665555 87.2050688460496 -137.4407058323727 1.976544429586566 0 0 0
11274 3 -1.19992230665555 85.22216607469177 -137.44163727410265 3.9449999999672243 0 0 0
399 2 2.40015524373887 89.24139468015068 -137.44698197687043 1.9765444295478112 0 0 0
11279 3 -1.19992230665555 89.20252530099121 -137.41396659736603 3.9449999998865297 0 0 0
404 2 2.40015524373887 93.19783353470449 -137.34138078231885 1.9765444293353565 0 0 0
405 3 -1.19992230665555 91.1963058293421 -137.41292254264857 1.9765444294353214 0 0 0
11284 3 -1.19992230665555 93.17374327279516 -137.31023476158273 3.9449999996391063 0 0 0
409 2 2.40015524373887 97.19830371006756 -137.00534634374165 1.9765444288475515 0 0 0
410 3 -1.19992230665555 95.1463707044412 -137.20038859603324 1.9765444290907102 0 0 0
411 3 -1.19992230665555 97.3563042842961 -138.9790604894778 1.976544428916853 0 0 0
11289 3 -1.19992230665555 97.11909419861426 -136.97454090335634 3.944999999174753 0 0 0
415 3 -1.19992230665555 99.09426962560468 -136.75290554261682 1.976544428285857 0 0 0
11290 1 1.20020711080428 99.50281653796064 -139.01880193264415 3.9449999987630795 0 0 0
414 2 2.40015524373887 101.07606861470177 -136.6217454859822 1.9765444277659512 0 0 0
416 3 -1.19992230665555 101.2287429130299 -138.5320655819559 1.9765444280170208 0 0 0
420 3 -1.19992230665555 103.003701467458 -136.34360862644735 1.9765444264668668 0 0 0
11294 3 -1.19992230665555 101.05488972297881 -136.5701894729723 3.9449999980594344 0 0 0
11295 1 1.20020711080428 103.0784099004272 -138.57607427176237 3.9449999971045995 0 0 0
419 2 2.40015524373887 104.94677254933279 -136.228679748546 1.9765444250988309 0 0 0
421 3 -1.19992230665555 105.03939681899855 -138.16484591844198 1.9765444254649192 0 0 0
425 3 -1.19992230665555 106.93014740054521 -136.01907475896886 1.9765444223838826 0 0 0