LAMMPS data file via write_data, version 19 Nov 2024, timestep = 0, units =.1 metal
              
13858 atoms             
3 atom types            
              
0 237.520453066678 xlo xhi           
-47.5040906133356 47.5040906133356 ylo yhi           
0 7.89 zlo zhi           
              
Masses              
              
1 87.62             
2 47.867             
3 15.999             
              
Atoms # charge            
              
1 2 2.40031163401206 173.36535871743155 24.033813240191336 1.9725 0 0 0      
2 3 -1.1998439308046 173.36535871743155 24.033813240191336 0.0 0 0 0      
3 2 2.40031163401206 177.30794462265482 24.17180374687416 1.9725 0 0 0      
4 3 -1.1998439308046 175.33665167004318 24.102808493532734 1.9725 0 0 0      
5 3 -1.1998439308046 177.30794462265482 24.17180374687416 0.0 0 0 0      
6 2 2.40031163401206 181.2505305278781 24.30979425355696 1.9725 0 0 0      
7 3 -1.1998439308046 179.27923757526645 24.24079900021556 1.9725 0 0 0      
8 3 -1.1998439308046 181.2505305278781 24.30979425355696 0.0 0 0 0      
9 2 2.40031163401206 185.1931164331015 24.447784760239784 1.9725 0 0 0      
10 3 -1.1998439308046 183.22182348048975 24.378789506898386 1.9725 0 0 0      
11 3 -1.1998439308046 185.1931164331015 24.447784760239784 0.0 0 0 0      
12 2 2.40031163401206 189.13570233832476 24.58577526692261 1.9725 0 0 0      
13 3 -1.1998439308046 187.1644093857131 24.516780013581183 1.9725 0 0 0      
14 3 -1.1998439308046 189.13570233832476 24.58577526692261 0.0 0 0 0      
15 2 2.40031163401206 193.078288243548 24.723765773605408 1.9725 0 0 0      
16 3 -1.1998439308046 191.1069952909364 24.65477052026401 1.9725 0 0 0      
17 3 -1.1998439308046 193.078288243548 24.723765773605408 0.0 0 0 0      
18 2 2.40031163401206 197.02087414877133 24.861756280288233 1.9725 0 0 0      
19 3 -1.1998439308046 195.04958119615964 24.792761026946835 1.9725 0 0 0      
20 3 -1.1998439308046 197.02087414877133 24.861756280288233 0.0 0 0 0      
21 2 2.40031163401206 200.96346005399465 24.99974678697106 1.9725 0 0 0      
22 3 -1.1998439308046 198.99216710138305 24.930751533629632 1.9725 0 0 0      
23 3 -1.1998439308046 200.96346005399465 24.99974678697106 0.0 0 0 0      
24 2 2.40031163401206 204.90604595921792 25.137737293653856 1.9725 0 0 0      
25 3 -1.1998439308046 202.9347530066063 25.068742040312458 1.9725 0 0 0      
26 3 -1.1998439308046 204.90604595921792 25.137737293653856 0.0 0 0 0      
27 2 2.40031163401206 208.8486318644412 25.275727800336682 1.9725 0 0 0      
28 3 -1.1998439308046 206.87733891182955 25.206732546995283 1.9725 0 0 0      
29 3 -1.1998439308046 208.8486318644412 25.275727800336682 0.0 0 0 0      
30 2 2.40031163401206 212.79121776966457 25.413718307019508 1.9725 0 0 0      
31 3 -1.1998439308046 210.8199248170528 25.34472305367808 1.9725 0 0 0      
32 3 -1.1998439308046 212.79121776966457 25.413718307019508 0.0 0 0 0      
33 2 2.40031163401206 216.73380367488784 25.551708813702305 1.9725 0 0 0      
34 3 -1.1998439308046 214.7625107222762 25.482713560360907 1.9725 0 0 0      
35 3 -1.1998439308046 216.73380367488784 25.551708813702305 0.0 0 0 0      
36 2 2.40031163401206 220.6763895801111 25.68969932038513 1.9725 0 0 0      
37 3 -1.1998439308046 218.70509662749947 25.620704067043704 1.9725 0 0 0      
38 3 -1.1998439308046 220.6763895801111 25.68969932038513 0.0 0 0 0      
39 2 2.40031163401206 224.6189754853344 25.82768982706793 1.9725 0 0 0      
40 3 -1.1998439308046 222.64768253272277 25.75869457372653 1.9725 0 0 0      
41 3 -1.1998439308046 224.6189754853344 25.82768982706793 0.0 0 0 0      
42 3 -1.1998439308046 236.44673320100432 116.2706104928904 3.945 0 0 0      
43 2 2.40031163401206 228.5615613905577 25.965680333750754 1.9725 0 0 0      
44 3 -1.1998439308046 226.5902684379461 25.896685080409327 1.9725 0 0 0      
45 3 -1.1998439308046 236.3777379476629 114.29931754027876 5.917499999999999 0 0 0      
46 3 -1.1998439308046 228.5615613905577 25.965680333750754 0.0 0 0 0      
47 1 1.20041594454073 230.6018495965108 24.06338263448052 0.0 0 0 0      
48 2 2.40031163401206 232.50414729578105 26.10367084043355 1.9725 0 0 0      
49 3 -1.1998439308046 230.53285434316936 26.034675587092153 1.9725 0 0 0      
50 3 -1.1998439308046 232.5731425491224 24.132377887821917 1.9725 0 0 0      
51 3 -1.1998439308046 232.50414729578105 26.10367084043355 0.0 0 0 0      
52 1 1.20041594454073 234.54443550173409 24.201373141163344 0.0 0 0 0      
53 2 2.40031163401206 236.44673320100432 26.241661347116377 1.9725 0 0 0      
54 3 -1.1998439308046 234.47544024839263 26.17266609377498 1.9725 0 0 0      
55 3 -1.1998439308046 236.5157284543457 24.270368394504743 1.9725 0 0 0      
56 3 -1.1998439308046 236.44673320100432 26.241661347116377 0.0 0 0 0      
57 3 -1.1998439308046 234.47544024839263 116.33960574623183 5.917499999999999 0 0 0      
58 2 2.40031163401206 236.44673320100432 116.2706104928904 5.917499999999999 0 0 0      
59 1 1.20041594454073 234.40644499505123 114.36831279362019 3.945 0 0 0      
60 3 -1.1998439308046 232.50414729578105 116.40860099957325 3.945 0 0 0      
61 3 -1.1998439308046 232.4351520424396 114.43730804696162 5.917499999999999 0 0 0      
62 3 -1.1998439308046 230.53285434316936 116.47759625291468 5.917499999999999 0 0 0      
63 2 2.40031163401206 62.83496286449633 24.112664958295795 1.9725 0 0 0      
64 3 -1.1998439308046 60.8636699118847 24.043669704954397 1.9725 0 0 0      
65 3 -1.1998439308046 62.83496286449633 24.112664958295795 0.0 0 0 0      
66 2 2.40031163401206 66.77754876971966 24.25065546497862 1.9725 0 0 0      
67 3 -1.1998439308046 64.80625581710797 24.181660211637222 1.9725 0 0 0      
68 3 -1.1998439308046 66.77754876971966 24.25065546497862 0.0 0 0 0      
69 2 2.40031163401206 70.72013467494293 24.388645971661447 1.9725 0 0 0      
70 3 -1.1998439308046 68.74884172233129 24.31965071832002 1.9725 0 0 0      
71 3 -1.1998439308046 70.72013467494293 24.388645971661447 0.0 0 0 0      
72 2 2.40031163401206 74.66272058016625 24.526636478344244 1.9725 0 0 0      
73 3 -1.1998439308046 72.69142762755456 24.457641225002845 1.9725 0 0 0      
74 3 -1.1998439308046 74.66272058016625 24.526636478344244 0.0 0 0 0      
75 2 2.40031163401206 78.60530648538952 24.66462698502707 1.9725 0 0 0      
76 3 -1.1998439308046 76.63401353277789 24.595631731685643 1.9725 0 0 0      
77 3 -1.1998439308046 78.60530648538952 24.66462698502707 0.0 0 0 0      
78 2 2.40031163401206 82.54789239061284 24.802617491709867 1.9725 0 0 0      
79 3 -1.1998439308046 80.57659943800115 24.73362223836847 1.9725 0 0 0      
80 3 -1.1998439308046 82.54789239061284 24.802617491709867 0.0 0 0 0      
81 2 2.40031163401206 86.49047829583611 24.940607998392693 1.9725 0 0 0      
82 3 -1.1998439308046 84.51918534322448 24.871612745051266 1.9725 0 0 0      
83 3 -1.1998439308046 86.49047829583611 24.940607998392693 0.0 0 0 0      
84 2 2.40031163401206 90.43306420105944 25.07859850507549 1.9725 0 0 0      
85 3 -1.1998439308046 88.46177124844775 25.00960325173409 1.9725 0 0 0      
86 3 -1.1998439308046 90.43306420105944 25.07859850507549 0.0 0 0 0      
87 2 2.40031163401206 94.3756501062827 25.216589011758316 1.9725 0 0 0      
88 3 -1.1998439308046 92.40435715367109 25.147593758416917 1.9725 0 0 0      
89 3 -1.1998439308046 94.3756501062827 25.216589011758316 0.0 0 0 0      
90 2 2.40031163401206 98.31823601150604 25.35457951844114 1.9725 0 0 0      
91 3 -1.1998439308046 96.3469430588944 25.285584265099715 1.9725 0 0 0      
92 3 -1.1998439308046 98.31823601150604 25.35457951844114 0.0 0 0 0      
93 2 2.40031163401206 102.2608219167293 25.49257002512394 1.9725 0 0 0      
94 3 -1.1998439308046 100.28952896411766 25.42357477178257 1.9725 0 0 0      
95 3 -1.1998439308046 102.2608219167293 25.49257002512394 0.0 0 0 0      
96 2 2.40031163401206 106.20340782195262 25.630560531806765 1.9725 0 0 0      
97 3 -1.1998439308046 104.23211486934092 25.561565278465366 1.9725 0 0 0      
98 3 -1.1998439308046 106.20340782195262 25.630560531806765 0.0 0 0 0      
99 2 2.40031163401206 110.14599372717596 25.76855103848959 1.9725 0 0 0      
100 3 -1.1998439308046 108.17470077456426 25.699555785148192 1.9725 0 0 0      
101 2 2.40031163401206 232.50414729578105 116.40860099957325 5.917499999999999 0 0 0      
102 3 -1.1998439308046 110.14599372717596 25.76855103848959 0.0 0 0 0      
103 1 1.20041594454073 230.46385908982796 114.50630330030299 3.945 0 0 0      
104 2 2.40031163401206 114.08857963239922 25.906541545172388 1.9725 0 0 0      
105 3 -1.1998439308046 112.11728667978758 25.83754629183099 1.9725 0 0 0      
106 3 -1.1998439308046 228.5615613905577 116.54659150625605 3.945 0 0 0      
107 3 -1.1998439308046 114.08857963239922 25.906541545172388 0.0 0 0 0      
108 1 1.20041594454073 116.12886783835228 24.004243845902153 0.0 0 0 0      
109 2 2.40031163401206 118.03116553762248 26.044532051855214 1.9725 0 0 0      
110 3 -1.1998439308046 116.05987258501084 25.975536798513815 1.9725 0 0 0      
111 3 -1.1998439308046 118.10016079096393 24.07323909924358 1.9725 0 0 0      
112 3 -1.1998439308046 118.03116553762248 26.044532051855214 0.0 0 0 0      
113 1 1.20041594454073 120.07145374357556 24.14223435258498 0.0 0 0 0      
114 2 2.40031163401206 121.9737514428458 26.18252255853804 1.9725 0 0 0      
115 3 -1.1998439308046 120.00245849023418 26.113527305196612 1.9725 0 0 0      
116 3 -1.1998439308046 122.04274669618724 24.211229605926405 1.9725 0 0 0      
117 3 -1.1998439308046 121.9737514428458 26.18252255853804 0.0 0 0 0      
118 1 1.20041594454073 124.01403964879889 24.280224859267804 0.0 0 0 0      
119 2 2.40031163401206 125.91633734806912 26.320513065220837 1.9725 0 0 0      
120 3 -1.1998439308046 123.9450443954575 26.251517811879438 1.9725 0 0 0      
121 3 -1.1998439308046 125.98533260141056 24.349220112609203 1.9725 0 0 0      
122 3 -1.1998439308046 125.91633734806912 26.320513065220837 0.0 0 0 0      
123 1 1.20041594454073 127.9566255540222 24.4182153659506 0.0 0 0 0      
124 2 2.40031163401206 129.8589232532924 26.458503571903663 1.9725 0 0 0      
125 3 -1.1998439308046 127.88763030068075 26.389508318562264 1.9725 0 0 0      
126 3 -1.1998439308046 129.92791850663383 24.48721061929203 1.9725 0 0 0      
127 3 -1.1998439308046 129.8589232532924 26.458503571903663 0.0 0 0 0      
128 1 1.20041594454073 131.89921145924546 24.556205872633427 0.0 0 0 0      
129 2 2.40031163401206 133.80150915851573 26.59649407858649 1.9725 0 0 0      
130 3 -1.1998439308046 131.83021620590404 26.52749882524506 1.9725 0 0 0      
131 3 -1.1998439308046 133.8705044118571 24.625201125974854 1.9725 0 0 0      
132 3 -1.1998439308046 133.80150915851573 26.59649407858649 0.0 0 0 0      
133 1 1.20041594454073 135.84179736446873 24.694196379316224 0.0 0 0 0      
134 2 2.40031163401206 137.744095063739 26.734484585269286 1.9725 0 0 0      
135 3 -1.1998439308046 135.77280211112736 26.665489331927887 1.9725 0 0 0      
136 3 -1.1998439308046 137.81309031708037 24.76319163265765 1.9725 0 0 0      
137 3 -1.1998439308046 137.744095063739 26.734484585269286 0.0 0 0 0      
138 1 1.20041594454073 139.78438326969206 24.83218688599905 0.0 0 0 0      
139 2 2.40031163401206 141.68668096896232 26.87247509195211 1.9725 0 0 0      
140 3 -1.1998439308046 139.7153880163507 26.803479838610713 1.9725 0 0 0      
141 3 -1.1998439308046 141.7556762223037 24.901182139340477 1.9725 0 0 0      
142 3 -1.1998439308046 141.68668096896232 26.87247509195211 0.0 0 0 0      
143 1 1.20041594454073 143.72696917491538 24.970177392681876 0.0 0 0 0      
144 2 2.40031163401206 145.6292668741856 27.010465598634937 1.9725 0 0 0      
145 3 -1.1998439308046 143.65797392157396 26.94147034529351 1.9725 0 0 0      
146 3 -1.1998439308046 145.69826212752702 25.039172646023275 1.9725 0 0 0      
147 3 -1.1998439308046 145.6292668741856 27.010465598634937 0.0 0 0 0      
148 1 1.20041594454073 147.66955508013865 25.108167899364673 0.0 0 0 0      
149 2 2.40031163401206 149.5718527794089 27.148456105317734 1.9725 0 0 0      
150 3 -1.1998439308046 147.60055982679728 27.079460851976336 1.9725 0 0 0      
151 3 -1.1998439308046 149.64084803275028 25.1771631527061 1.9725 0 0 0      
152 3 -1.1998439308046 149.5718527794089 27.148456105317734 0.0 0 0 0      
153 1 1.20041594454073 151.61214098536192 25.2461584060475 0.0 0 0 0      
154 2 2.40031163401206 153.51443868463224 27.28644661200056 1.9725 0 0 0      
155 3 -1.1998439308046 151.54314573202055 27.21745135865916 1.9725 0 0 0      
156 3 -1.1998439308046 153.5834339379736 25.315153659388898 1.9725 0 0 0      
157 3 -1.1998439308046 153.51443868463224 27.28644661200056 0.0 0 0 0      
158 1 1.20041594454073 155.55472689058524 25.384148912730325 0.0 0 0 0      
159 2 2.40031163401206 157.4570245898555 27.424437118683386 1.9725 0 0 0      
160 3 -1.1998439308046 155.48573163724387 27.35544186534196 1.9725 0 0 0      
161 3 -1.1998439308046 157.5260198431969 25.453144166071723 1.9725 0 0 0      
162 3 -1.1998439308046 157.4570245898555 27.424437118683386 0.0 0 0 0      
163 1 1.20041594454073 159.49731279580857 25.522139419413122 0.0 0 0 0      
164 2 2.40031163401206 161.39961049507878 27.562427625366183 1.9725 0 0 0      
165 3 -1.1998439308046 159.42831754246714 27.493432372024785 1.9725 0 0 0      
166 3 -1.1998439308046 161.4686057484202 25.59113467275455 1.9725 0 0 0      
167 3 -1.1998439308046 161.39961049507878 27.562427625366183 0.0 0 0 0      
168 1 1.20041594454073 163.43989870103184 25.660129926095948 0.0 0 0 0      
169 2 2.40031163401206 165.3421964003021 27.70041813204901 1.9725 0 0 0      
170 3 -1.1998439308046 163.37090344769047 27.63142287870761 1.9725 0 0 0      
171 3 -1.1998439308046 165.41119165364347 25.729125179437347 1.9725 0 0 0      
172 3 -1.1998439308046 165.3421964003021 27.70041813204901 0.0 0 0 0      
173 1 1.20041594454073 167.38248460625516 25.798120432778774 0.0 0 0 0      
174 2 2.40031163401206 169.28478230552545 27.838408638731835 1.9725 0 0 0      
175 3 -1.1998439308046 167.3134893529138 27.769413385390408 1.9725 0 0 0      
176 3 -1.1998439308046 169.3537775588668 25.867115686120172 1.9725 0 0 0      
177 3 -1.1998439308046 169.28478230552545 27.838408638731835 0.0 0 0 0      
178 1 1.20041594454073 171.3250705114785 25.93611093946157 0.0 0 0 0      
179 2 2.40031163401206 173.2273682107487 27.976399145414632 1.9725 0 0 0      
180 3 -1.1998439308046 171.25607525813706 27.907403892073233 1.9725 0 0 0      
181 3 -1.1998439308046 173.29636346409012 26.005106192802998 1.9725 0 0 0      
182 3 -1.1998439308046 173.2273682107487 27.976399145414632 0.0 0 0 0      
183 1 1.20041594454073 175.26765641670175 26.074101446144397 0.0 0 0 0      
184 2 2.40031163401206 177.16995411597196 28.11438965209743 1.9725 0 0 0      
185 3 -1.1998439308046 175.19866116336033 28.04539439875606 1.9725 0 0 0      
186 3 -1.1998439308046 177.2389493693134 26.143096699485795 1.9725 0 0 0      
187 3 -1.1998439308046 177.16995411597196 28.11438965209743 0.0 0 0 0      
188 1 1.20041594454073 179.21024232192502 26.212091952827222 0.0 0 0 0      
189 2 2.40031163401206 181.11254002119531 28.252380158780255 1.9725 0 0 0      
190 3 -1.1998439308046 179.14124706858365 28.183384905438857 1.9725 0 0 0      
191 3 -1.1998439308046 181.1815352745367 26.28108720616862 1.9725 0 0 0      
192 3 -1.1998439308046 181.11254002119531 28.252380158780255 0.0 0 0 0      
193 1 1.20041594454073 183.15282822714835 26.35008245951002 0.0 0 0 0      
194 2 2.40031163401206 185.0551259264186 28.39037066546308 1.9725 0 0 0      
195 3 -1.1998439308046 183.08383297380695 28.321375412121682 1.9725 0 0 0      
196 3 -1.1998439308046 185.12412117976004 26.419077712851447 1.9725 0 0 0      
197 3 -1.1998439308046 185.0551259264186 28.39037066546308 0.0 0 0 0      
198 1 1.20041594454073 187.09541413237167 26.488072966192846 0.0 0 0 0      
199 2 2.40031163401206 188.99771183164188 28.52836117214588 1.9725 0 0 0      
200 3 -1.1998439308046 187.02641887903025 28.45936591880448 1.9725 0 0 0      
201 3 -1.1998439308046 189.0667070849833 26.557068219534244 1.9725 0 0 0      
202 3 -1.1998439308046 188.99771183164188 28.52836117214588 0.0 0 0 0      
203 1 1.20041594454073 191.0380000375949 26.626063472875643 0.0 0 0 0      
204 2 2.40031163401206 192.94029773686515 28.666351678828704 1.9725 0 0 0      
205 3 -1.1998439308046 190.9690047842535 28.597356425487305 1.9725 0 0 0      
206 3 -1.1998439308046 193.00929299020655 26.69505872621707 1.9725 0 0 0      
207 3 -1.1998439308046 192.94029773686515 28.666351678828704 0.0 0 0 0      
208 1 1.20041594454073 194.9805859428182 26.76405397955847 0.0 0 0 0      
209 2 2.40031163401206 196.88288364208853 28.80434218551153 1.9725 0 0 0      
210 3 -1.1998439308046 194.91159068947684 28.735346932170103 1.9725 0 0 0      
211 3 -1.1998439308046 196.9518788954299 26.833049232899896 1.9725 0 0 0      
212 3 -1.1998439308046 196.88288364208853 28.80434218551153 0.0 0 0 0      
213 1 1.20041594454073 198.9231718480416 26.902044486241294 0.0 0 0 0      
214 2 2.40031163401206 200.8254695473118 28.942332692194327 1.9725 0 0 0      
215 3 -1.1998439308046 198.85417659470016 28.87333743885293 1.9725 0 0 0      
216 3 -1.1998439308046 200.8944648006532 26.971039739582693 1.9725 0 0 0      
217 3 -1.1998439308046 200.8254695473118 28.942332692194327 0.0 0 0 0      
218 1 1.20041594454073 202.8657577532649 27.04003499292412 0.0 0 0 0      
219 2 2.40031163401206 204.76805545253507 29.080323198877153 1.9725 0 0 0      
220 3 -1.1998439308046 202.79676249992343 29.011327945535754 1.9725 0 0 0      
221 3 -1.1998439308046 204.8370507058765 27.10903024626552 1.9725 0 0 0      
222 3 -1.1998439308046 204.76805545253507 29.080323198877153 0.0 0 0 0      
223 1 1.20041594454073 206.80834365848813 27.178025499606917 0.0 0 0 0      
224 2 2.40031163401206 208.7106413577584 29.21831370555998 1.9725 0 0 0      
225 3 -1.1998439308046 206.7393484051467 29.14931845221855 1.9725 0 0 0      
226 3 -1.1998439308046 208.77963661109976 27.247020752948345 1.9725 0 0 0      
227 3 -1.1998439308046 208.7106413577584 29.21831370555998 0.0 0 0 0      
228 1 1.20041594454073 210.7509295637114 27.316016006289715 0.0 0 0 0      
229 2 2.40031163401206 212.6532272629817 29.356304212242776 1.9725 0 0 0      
230 3 -1.1998439308046 210.68193431037 29.287308958901377 1.9725 0 0 0      
231 3 -1.1998439308046 212.72222251632317 27.385011259631142 1.9725 0 0 0      
232 3 -1.1998439308046 212.6532272629817 29.356304212242776 0.0 0 0 0      
233 1 1.20041594454073 214.6935154689348 27.45400651297257 0.0 0 0 0      
234 2 2.40031163401206 216.59581316820496 29.4942947189256 1.9725 0 0 0      
235 3 -1.1998439308046 214.62452021559332 29.425299465584203 1.9725 0 0 0      
236 3 -1.1998439308046 216.6648084215464 27.523001766313968 1.9725 0 0 0      
237 3 -1.1998439308046 216.59581316820496 29.4942947189256 0.0 0 0 0      
238 1 1.20041594454073 218.63610137415805 27.591997019655366 0.0 0 0 0      
239 2 2.40031163401206 220.53839907342825 29.632285225608427 1.9725 0 0 0      
240 3 -1.1998439308046 218.56710612081665 29.563289972267 1.9725 0 0 0      
241 3 -1.1998439308046 220.60739432676968 27.660992272996793 1.9725 0 0 0      
242 3 -1.1998439308046 220.53839907342825 29.632285225608427 0.0 0 0 0      
243 1 1.20041594454073 222.5786872793813 27.729987526338192 0.0 0 0 0      
244 2 2.40031163401206 224.4809849786516 29.770275732291225 1.9725 0 0 0      
245 3 -1.1998439308046 222.50969202603997 29.701280478949826 1.9725 0 0 0      
246 3 -1.1998439308046 224.54998023199292 27.79898277967959 1.9725 0 0 0      
247 3 -1.1998439308046 224.4809849786516 29.770275732291225 0.0 0 0 0      
248 1 1.20041594454073 226.52127318460464 27.867978033021018 0.0 0 0 0      
249 2 2.40031163401206 228.4235708838749 29.90826623897405 1.9725 0 0 0      
250 3 -1.1998439308046 226.45227793126327 29.839270985632623 1.9725 0 0 0      
251 3 -1.1998439308046 228.49256613721627 27.936973286362417 1.9725 0 0 0      
252 3 -1.1998439308046 228.4235708838749 29.90826623897405 0.0 0 0 0      
253 1 1.20041594454073 230.46385908982796 28.005968539703815 0.0 0 0 0      
254 2 2.40031163401206 232.3661567890982 30.046256745656876 1.9725 0 0 0      
255 3 -1.1998439308046 230.3948638364865 29.97726149231545 1.9725 0 0 0      
256 3 -1.1998439308046 232.4351520424396 28.074963793045242 1.9725 0 0 0      
257 3 -1.1998439308046 232.3661567890982 30.046256745656876 0.0 0 0 0      
258 1 1.20041594454073 234.40644499505123 28.14395904638664 0.0 0 0 0      
259 2 2.40031163401206 236.3087426943215 30.184247252339674 1.9725 0 0 0      
260 3 -1.1998439308046 234.33744974170983 30.115251998998275 1.9725 0 0 0      
261 3 -1.1998439308046 236.3777379476629 28.21295429972804 1.9725 0 0 0      
262 3 -1.1998439308046 236.3087426943215 30.184247252339674 0.0 0 0 0      
263 3 -1.1998439308046 228.49256613721627 114.57529855364436 5.917499999999999 0 0 0      
264 2 2.40031163401206 3.5581837794640023 25.985393263276876 1.9725 0 0 0      
265 3 -1.1998439308046 1.5868908268523685 25.91639800993545 1.9725 0 0 0      
266 3 -1.1998439308046 3.627179032805429 24.014100310665214 1.9725 0 0 0      
267 3 -1.1998439308046 3.5581837794640023 25.985393263276876 0.0 0 0 0      
268 1 1.20041594454073 5.598471985417064 24.08309556400664 0.0 0 0 0      
269 2 2.40031163401206 7.500769684687327 26.123383769959673 1.9725 0 0 0      
270 3 -1.1998439308046 5.529476732075693 26.054388516618275 1.9725 0 0 0      
271 3 -1.1998439308046 7.569764938028754 24.15209081734804 1.9725 0 0 0      
272 3 -1.1998439308046 7.500769684687327 26.123383769959673 0.0 0 0 0      
273 1 1.20041594454073 9.541057890640388 24.221086070689438 0.0 0 0 0      
274 2 2.40031163401206 11.443355589910595 26.2613742766425 1.9725 0 0 0      
275 3 -1.1998439308046 9.47206263729896 26.1923790233011 1.9725 0 0 0      
276 3 -1.1998439308046 11.512350843252024 24.290081324030837 1.9725 0 0 0      
277 3 -1.1998439308046 11.443355589910595 26.2613742766425 0.0 0 0 0      
278 1 1.20041594454073 13.483643795863657 24.359076577372264 0.0 0 0 0      
279 2 2.40031163401206 15.38594149513392 26.399364783325325 1.9725 0 0 0      
280 3 -1.1998439308046 13.414648542522286 26.330369529983898 1.9725 0 0 0      
281 3 -1.1998439308046 15.454936748475347 24.428071830713662 1.9725 0 0 0      
282 3 -1.1998439308046 15.38594149513392 26.399364783325325 0.0 0 0 0      
283 1 1.20041594454073 17.42622970108698 24.49706708405506 0.0 0 0 0      
284 2 2.40031163401206 19.328527400357245 26.537355290008122 1.9725 0 0 0      
285 3 -1.1998439308046 17.357234447745554 26.468360036666724 1.9725 0 0 0      
286 3 -1.1998439308046 19.397522653698616 24.566062337396488 1.9725 0 0 0      
287 3 -1.1998439308046 19.328527400357245 26.537355290008122 0.0 0 0 0      
288 1 1.20041594454073 21.368815606310307 24.635057590737887 0.0 0 0 0      
289 2 2.40031163401206 23.271113305580517 26.675345796690948 1.9725 0 0 0      
290 3 -1.1998439308046 21.29982035296888 26.60635054334955 1.9725 0 0 0      
291 3 -1.1998439308046 23.34010855892194 24.704052844079285 1.9725 0 0 0      
292 3 -1.1998439308046 23.271113305580517 26.675345796690948 0.0 0 0 0      
293 1 1.20041594454073 25.31140151153357 24.773048097420713 0.0 0 0 0      
294 2 2.40031163401206 27.21369921080384 26.813336303373774 1.9725 0 0 0      
295 3 -1.1998439308046 25.242406258192148 26.744341050032347 1.9725 0 0 0      
296 3 -1.1998439308046 27.28269446414521 24.84204335076214 1.9725 0 0 0      
297 3 -1.1998439308046 27.21369921080384 26.813336303373774 0.0 0 0 0      
298 1 1.20041594454073 29.2539874167569 24.91103860410351 0.0 0 0 0      
299 2 2.40031163401206 31.156285116027107 26.95132681005657 1.9725 0 0 0      
300 3 -1.1998439308046 29.184992163415476 26.882331556715172 1.9725 0 0 0      
301 3 -1.1998439308046 31.225280369368534 24.980033857444937 1.9725 0 0 0      
302 3 -1.1998439308046 31.156285116027107 26.95132681005657 0.0 0 0 0      
303 1 1.20041594454073 33.19657332198017 25.049029110786336 0.0 0 0 0      
304 2 2.40031163401206 35.09887102125043 27.089317316739397 1.9725 0 0 0      
305 3 -1.1998439308046 33.1275780686388 27.020322063397998 1.9725 0 0 0      
306 3 -1.1998439308046 35.16786627459186 25.118024364127734 1.9725 0 0 0      
307 3 -1.1998439308046 35.09887102125043 27.089317316739397 0.0 0 0 0      
308 1 1.20041594454073 37.13915922720349 25.18701961746916 0.0 0 0 0      
309 2 2.40031163401206 39.0414569264737 27.227307823422194 1.9725 0 0 0      
310 3 -1.1998439308046 37.07016397386207 27.158312570080795 1.9725 0 0 0      
311 3 -1.1998439308046 39.11045217981513 25.25601487081056 1.9725 0 0 0      
312 3 -1.1998439308046 39.0414569264737 27.227307823422194 0.0 0 0 0      
313 1 1.20041594454073 41.08174513242676 25.32501012415196 0.0 0 0 0      
314 2 2.40031163401206 42.98404283169703 27.36529833010502 1.9725 0 0 0      
315 3 -1.1998439308046 41.01274987908533 27.29630307676362 1.9725 0 0 0      
316 3 -1.1998439308046 43.05303808503845 25.394005377493386 1.9725 0 0 0      
317 3 -1.1998439308046 42.98404283169703 27.36529833010502 0.0 0 0 0      
318 1 1.20041594454073 45.024331037650086 25.463000630834784 0.0 0 0 0      
319 2 2.40031163401206 46.92662873692029 27.503288836787846 1.9725 0 0 0      
320 3 -1.1998439308046 44.95533578430866 27.434293583446447 1.9725 0 0 0      
321 3 -1.1998439308046 46.99562399026172 25.531995884176183 1.9725 0 0 0      
322 3 -1.1998439308046 46.92662873692029 27.503288836787846 0.0 0 0 0      
323 1 1.20041594454073 48.96691694287336 25.60099113751761 0.0 0 0 0      
324 2 2.40031163401206 50.86921464214362 27.64127934347067 1.9725 0 0 0      
325 3 -1.1998439308046 48.897921689531984 27.572284090129244 1.9725 0 0 0      
326 3 -1.1998439308046 50.938209895485045 25.66998639085901 1.9725 0 0 0      
327 3 -1.1998439308046 50.86921464214362 27.64127934347067 0.0 0 0 0      
328 1 1.20041594454073 52.90950284809668 25.738981644200408 0.0 0 0 0      
329 2 2.40031163401206 54.811800547366886 27.77926985015347 1.9725 0 0 0      
330 3 -1.1998439308046 52.84050759475525 27.71027459681207 1.9725 0 0 0      
331 3 -1.1998439308046 54.88079580070831 25.807976897541835 1.9725 0 0 0      
332 3 -1.1998439308046 54.811800547366886 27.77926985015347 0.0 0 0 0      
333 1 1.20041594454073 56.85208875331995 25.876972150883233 0.0 0 0 0      
334 2 2.40031163401206 58.75438645259021 27.917260356836266 1.9725 0 0 0      
335 3 -1.1998439308046 56.78309349997858 27.848265103494896 1.9725 0 0 0      
336 3 -1.1998439308046 58.82338170593164 25.945967404224632 1.9725 0 0 0      
337 3 -1.1998439308046 58.75438645259021 27.917260356836266 0.0 0 0 0      
338 1 1.20041594454073 60.79467465854327 26.01496265756606 0.0 0 0 0      
339 2 2.40031163401206 62.696972357813536 28.05525086351912 1.9725 0 0 0      
340 3 -1.1998439308046 60.725679405201845 27.986255610177693 1.9725 0 0 0      
341 3 -1.1998439308046 62.765967611154906 26.083957910907458 1.9725 0 0 0      
342 3 -1.1998439308046 62.696972357813536 28.05525086351912 0.0 0 0 0      
343 1 1.20041594454073 64.7372605637666 26.152953164248856 0.0 0 0 0      
344 2 2.40031163401206 66.6395582630368 28.193241370201918 1.9725 0 0 0      
345 3 -1.1998439308046 64.66826531042517 28.12424611686052 1.9725 0 0 0      
346 3 -1.1998439308046 66.70855351637823 26.221948417590283 1.9725 0 0 0      
347 3 -1.1998439308046 66.6395582630368 28.193241370201918 0.0 0 0 0      
348 1 1.20041594454073 68.67984646898987 26.290943670931682 0.0 0 0 0      
349 2 2.40031163401206 70.58214416826013 28.331231876884743 1.9725 0 0 0      
350 3 -1.1998439308046 68.61085121564844 28.262236623543316 1.9725 0 0 0      
351 3 -1.1998439308046 70.6511394216015 26.35993892427308 1.9725 0 0 0      
352 3 -1.1998439308046 70.58214416826013 28.331231876884743 0.0 0 0 0      
353 1 1.20041594454073 72.62243237421313 26.428934177614508 0.0 0 0 0      
354 2 2.40031163401206 74.52473007348345 28.46922238356754 1.9725 0 0 0      
355 3 -1.1998439308046 72.55343712087176 28.400227130226142 1.9725 0 0 0      
356 3 -1.1998439308046 74.59372532682482 26.497929430955907 1.9725 0 0 0      
357 3 -1.1998439308046 74.52473007348345 28.46922238356754 0.0 0 0 0      
358 1 1.20041594454073 76.56501827943646 26.566924684297305 0.0 0 0 0      
359 2 2.40031163401206 78.46731597870672 28.607212890250366 1.9725 0 0 0      
360 3 -1.1998439308046 76.49602302609509 28.53821763690894 1.9725 0 0 0      
361 3 -1.1998439308046 78.53631123204809 26.635919937638704 1.9725 0 0 0      
362 3 -1.1998439308046 78.46731597870672 28.607212890250366 0.0 0 0 0      
363 1 1.20041594454073 80.50760418465978 26.70491519098013 0.0 0 0 0      
364 2 2.40031163401206 82.40990188392999 28.745203396933164 1.9725 0 0 0      
365 3 -1.1998439308046 80.43860893131836 28.676208143591765 1.9725 0 0 0      
366 3 -1.1998439308046 82.47889713727142 26.77391044432153 1.9725 0 0 0      
367 3 -1.1998439308046 82.40990188392999 28.745203396933164 0.0 0 0 0      
368 1 1.20041594454073 84.45019008988305 26.842905697662957 0.0 0 0 0      
369 2 2.40031163401206 86.35248778915332 28.88319390361599 1.9725 0 0 0      
370 3 -1.1998439308046 84.38119483654168 28.81419865027459 1.9725 0 0 0      
371 3 -1.1998439308046 86.42148304249469 26.911900951004355 1.9725 0 0 0      
372 3 -1.1998439308046 86.35248778915332 28.88319390361599 0.0 0 0 0      
373 1 1.20041594454073 88.39277599510632 26.980896204345754 0.0 0 0 0      
374 2 2.40031163401206 90.29507369437664 29.021184410298815 1.9725 0 0 0      