LAMMPS data file via write_data, version 19 Nov 2024, timestep = 0, units =.1 metal
              
28704 atoms             
3 atom types            
              
0 237.520453066678 xlo xhi           
-142.512271840007 47.5040906133356 ylo yhi           
0 7.89 zlo zhi           
              
Masses              
              
1 87.62             
2 47.867             
3 15.999             
              
Atoms # charge            
              
1 2 2.39992262738201 172.86394157370063 -142.4816894064083 1.9725 0 0 0      
2 3 -1.20003879748933 170.8915174580564 -142.49899137233498 1.9725 0 0 0      
3 3 -1.20003879748933 172.86394157370063 -142.4816894064083 0.0 0 0 0      
4 2 2.39992262738201 176.8087898049892 -142.44708547455488 1.9725 0 0 0      
5 3 -1.20003879748933 174.83636568934497 -142.46438744048157 1.9725 0 0 0      
6 3 -1.20003879748933 176.8087898049892 -142.44708547455488 0.0 0 0 0      
7 2 2.39992262738201 180.75363803627775 -142.41248154270147 1.9725 0 0 0      
8 3 -1.20003879748933 178.7812139206335 -142.42978350862816 1.9725 0 0 0      
9 3 -1.20003879748933 180.75363803627775 -142.41248154270147 0.0 0 0 0      
10 2 2.39992262738201 184.69848626756624 -142.37787761084806 1.9725 0 0 0      
11 3 -1.20003879748933 182.726062151922 -142.39517957677478 1.9725 0 0 0      
12 3 -1.20003879748933 184.69848626756624 -142.37787761084806 0.0 0 0 0      
13 2 2.39992262738201 188.6433344988548 -142.34327367899465 1.9725 0 0 0      
14 3 -1.20003879748933 186.67091038321055 -142.36057564492137 1.9725 0 0 0      
15 3 -1.20003879748933 188.6433344988548 -142.34327367899465 0.0 0 0 0      
16 2 2.39992262738201 192.58818273014333 -142.30866974714124 1.9725 0 0 0      
17 3 -1.20003879748933 190.61575861449904 -142.32597171306796 1.9725 0 0 0      
18 3 -1.20003879748933 192.58818273014333 -142.30866974714124 0.0 0 0 0      
19 2 2.39992262738201 196.5330309614319 -142.27406581528783 1.9725 0 0 0      
20 3 -1.20003879748933 194.5606068457876 -142.29136778121455 1.9725 0 0 0      
21 3 -1.20003879748933 196.5330309614319 -142.27406581528783 0.0 0 0 0      
22 2 2.39992262738201 200.4778791927204 -142.23946188343444 1.9725 0 0 0      
23 3 -1.20003879748933 198.5054550770762 -142.25676384936114 1.9725 0 0 0      
24 3 -1.20003879748933 200.4778791927204 -142.23946188343444 0.0 0 0 0      
25 2 2.39992262738201 204.4227274240089 -142.20485795158103 1.9725 0 0 0      
26 3 -1.20003879748933 202.45030330836465 -142.22215991750772 1.9725 0 0 0      
27 3 -1.20003879748933 204.4227274240089 -142.20485795158103 0.0 0 0 0      
28 2 2.39992262738201 208.36757565529743 -142.17025401972762 1.9725 0 0 0      
29 3 -1.20003879748933 206.39515153965323 -142.1875559856543 1.9725 0 0 0      
30 3 -1.20003879748933 208.36757565529743 -142.17025401972762 0.0 0 0 0      
31 2 2.39992262738201 212.31242388658603 -142.1356500878742 1.9725 0 0 0      
32 3 -1.20003879748933 210.33999977094172 -142.1529520538009 1.9725 0 0 0      
33 3 -1.20003879748933 212.31242388658603 -142.1356500878742 0.0 0 0 0      
34 2 2.39992262738201 216.25727211787452 -142.1010461560208 1.9725 0 0 0      
35 3 -1.20003879748933 214.28484800223023 -142.1183481219475 1.9725 0 0 0      
36 3 -1.20003879748933 216.25727211787452 -142.1010461560208 0.0 0 0 0      
37 2 2.39992262738201 220.2021203491631 -142.0664422241674 1.9725 0 0 0      
38 3 -1.20003879748933 218.22969623351884 -142.08374419009408 1.9725 0 0 0      
39 3 -1.20003879748933 220.2021203491631 -142.0664422241674 0.0 0 0 0      
40 2 2.39992262738201 224.1469685804516 -142.03183829231398 1.9725 0 0 0      
41 3 -1.20003879748933 222.17454446480733 -142.0491402582407 1.9725 0 0 0      
42 3 -1.20003879748933 224.1469685804516 -142.03183829231398 0.0 0 0 0      
43 2 2.39992262738201 228.09181681174016 -141.99723436046057 1.9725 0 0 0      
44 3 -1.20003879748933 226.11939269609587 -142.0145363263873 1.9725 0 0 0      
45 3 -1.20003879748933 228.09181681174016 -141.99723436046057 0.0 0 0 0      
46 2 2.39992262738201 232.0366650430287 -141.96263042860716 1.9725 0 0 0      
47 3 -1.20003879748933 230.06424092738445 -141.97993239453388 1.9725 0 0 0      
48 3 -1.20003879748933 232.0366650430287 -141.96263042860716 0.0 0 0 0      
49 2 2.39992262738201 235.9815132743172 -141.92802649675374 1.9725 0 0 0      
50 3 -1.20003879748933 234.00908915867296 -141.94532846268046 1.9725 0 0 0      
51 3 -1.20003879748933 235.9815132743172 -141.92802649675374 0.0 0 0 0      
52 1 1.19989669421488 1.2457415467226838 -142.01453632638726 0.0 0 0 0      
53 2 2.39992262738201 3.2008636964402517 -140.02481024481628 1.9725 0 0 0      
54 3 -1.20003879748933 1.228439580795964 -140.04211221074297 1.9725 0 0 0      
55 3 -1.20003879748933 3.218165662366971 -141.99723436046057 1.9725 0 0 0      
56 3 -1.20003879748933 3.2008636964402517 -140.02481024481628 0.0 0 0 0      
57 1 1.19989669421488 5.190589778011201 -141.97993239453385 0.0 0 0 0      
58 2 2.39992262738201 7.145711927728769 -139.99020631296287 1.9725 0 0 0      
59 3 -1.20003879748933 5.1732878120845385 -140.00750827888956 1.9725 0 0 0      
60 3 -1.20003879748933 7.163013893655489 -141.96263042860716 1.9725 0 0 0      
61 3 -1.20003879748933 7.145711927728769 -139.99020631296287 0.0 0 0 0      
62 1 1.19989669421488 9.135438009299776 -141.94532846268044 0.0 0 0 0      
63 2 2.39992262738201 11.090560159017343 -139.95560238110946 1.9725 0 0 0      
64 3 -1.20003879748933 9.118136043373056 -139.97290434703615 1.9725 0 0 0      
65 3 -1.20003879748933 11.107862124944006 -141.92802649675374 1.9725 0 0 0      
66 3 -1.20003879748933 11.090560159017343 -139.95560238110946 0.0 0 0 0      
67 1 1.19989669421488 13.080286240588292 -141.91072453082705 0.0 0 0 0      
68 2 2.39992262738201 15.03540839030586 -139.92099844925605 1.9725 0 0 0      
69 3 -1.20003879748933 13.062984274661574 -139.93830041518274 1.9725 0 0 0      
70 3 -1.20003879748933 15.05271035623258 -141.89342256490033 1.9725 0 0 0      
71 3 -1.20003879748933 15.03540839030586 -139.92099844925605 0.0 0 0 0      
72 1 1.19989669421488 17.02513447187681 -141.8761205989736 0.0 0 0 0      
73 2 2.39992262738201 18.98025662159438 -139.88639451740264 1.9725 0 0 0      
74 3 -1.20003879748933 17.007832505950148 -139.90369648332933 1.9725 0 0 0      
75 3 -1.20003879748933 18.997558587521095 -141.85881863304692 1.9725 0 0 0      
76 3 -1.20003879748933 18.98025662159438 -139.88639451740264 0.0 0 0 0      
77 1 1.19989669421488 20.969982703165385 -141.8415166671202 0.0 0 0 0      
78 2 2.39992262738201 22.925104852882956 -139.85179058554922 1.9725 0 0 0      
79 3 -1.20003879748933 20.952680737238666 -139.86909255147592 1.9725 0 0 0      
80 3 -1.20003879748933 22.942406818809616 -141.8242147011935 1.9725 0 0 0      
81 3 -1.20003879748933 22.925104852882956 -139.85179058554922 0.0 0 0 0      
82 1 1.19989669421488 24.914830934453903 -141.80691273526682 0.0 0 0 0      
83 2 2.39992262738201 26.86995308417147 -139.8171866536958 1.9725 0 0 0      
84 3 -1.20003879748933 24.897528968527183 -139.83448861962253 1.9725 0 0 0      
85 3 -1.20003879748933 26.88725505009819 -141.7896107693401 1.9725 0 0 0      
86 3 -1.20003879748933 26.86995308417147 -139.8171866536958 0.0 0 0 0      
87 1 1.19989669421488 28.85967916574242 -141.7723088034134 0.0 0 0 0      
88 2 2.39992262738201 30.814801315459988 -139.7825827218424 1.9725 0 0 0      
89 3 -1.20003879748933 28.84237719981576 -139.79988468776912 1.9725 0 0 0      
90 3 -1.20003879748933 30.832103281386708 -141.7550068374867 1.9725 0 0 0      
91 3 -1.20003879748933 30.814801315459988 -139.7825827218424 0.0 0 0 0      
92 1 1.19989669421488 32.804527397030995 -141.73770487156 0.0 0 0 0      
93 2 2.39992262738201 34.75964954674856 -139.747978789989 1.9725 0 0 0      
94 3 -1.20003879748933 32.787225431104275 -139.7652807559157 1.9725 0 0 0      
95 3 -1.20003879748933 34.776951512675225 -141.72040290563328 1.9725 0 0 0      
96 3 -1.20003879748933 34.75964954674856 -139.747978789989 0.0 0 0 0      
97 1 1.19989669421488 36.74937562831951 -141.7031009397066 0.0 0 0 0      
98 2 2.39992262738201 38.70449777803708 -139.71337485813558 1.9725 0 0 0      
99 3 -1.20003879748933 36.73207366239279 -139.7306768240623 1.9725 0 0 0      
100 3 -1.20003879748933 38.7217997439638 -141.68579897377987 1.9725 0 0 0      
101 3 -1.20003879748933 38.70449777803708 -139.71337485813558 0.0 0 0 0      
102 1 1.19989669421488 40.69422385960803 -141.66849700785318 0.0 0 0 0      
103 2 2.39992262738201 42.6493460093256 -139.6787709262822 1.9725 0 0 0      
104 3 -1.20003879748933 40.67692189368137 -139.6960728922089 1.9725 0 0 0      
105 3 -1.20003879748933 42.66664797525232 -141.65119504192648 1.9725 0 0 0      
106 3 -1.20003879748933 42.6493460093256 -139.6787709262822 0.0 0 0 0      
107 1 1.19989669421488 44.639072090896605 -141.63389307599977 0.0 0 0 0      
108 2 2.39992262738201 46.59419424061417 -139.6441669944288 1.9725 0 0 0      
109 3 -1.20003879748933 44.621770124969885 -139.66146896035548 1.9725 0 0 0      
110 3 -1.20003879748933 46.61149620654084 -141.61659111007307 1.9725 0 0 0      
111 3 -1.20003879748933 46.59419424061417 -139.6441669944288 0.0 0 0 0      
112 1 1.19989669421488 48.58392032218512 -141.59928914414635 0.0 0 0 0      
113 2 2.39992262738201 50.53904247190269 -139.60956306257538 1.9725 0 0 0      
114 3 -1.20003879748933 48.5666183562584 -139.62686502850207 1.9725 0 0 0      
115 3 -1.20003879748933 50.55634443782941 -141.58198717821966 1.9725 0 0 0      
116 3 -1.20003879748933 50.53904247190269 -139.60956306257538 0.0 0 0 0      
117 1 1.19989669421488 52.52876855347364 -141.56468521229294 0.0 0 0 0      
118 2 2.39992262738201 54.48389070319121 -139.57495913072196 1.9725 0 0 0      
119 3 -1.20003879748933 52.51146658754698 -139.59226109664866 1.9725 0 0 0      
120 3 -1.20003879748933 54.50119266911793 -141.54738324636625 1.9725 0 0 0      
121 3 -1.20003879748933 54.48389070319121 -139.57495913072196 0.0 0 0 0      
122 1 1.19989669421488 56.47361678476221 -141.53008128043953 0.0 0 0 0      
123 2 2.39992262738201 58.42873893447978 -139.54035519886855 1.9725 0 0 0      
124 3 -1.20003879748933 56.45631481883549 -139.55765716479524 1.9725 0 0 0      
125 3 -1.20003879748933 58.446040900406445 -141.51277931451284 1.9725 0 0 0      
126 3 -1.20003879748933 58.42873893447978 -139.54035519886855 0.0 0 0 0      
127 1 1.19989669421488 60.41846501605073 -141.49547734858612 0.0 0 0 0      
128 2 2.39992262738201 62.3735871657683 -139.50575126701514 1.9725 0 0 0      
129 3 -1.20003879748933 60.40116305012401 -139.52305323294183 1.9725 0 0 0      
130 3 -1.20003879748933 62.39088913169502 -141.47817538265943 1.9725 0 0 0      
131 3 -1.20003879748933 62.3735871657683 -139.50575126701514 0.0 0 0 0      
132 1 1.19989669421488 64.36331324733925 -141.46087341673274 0.0 0 0 0      
133 2 2.39992262738201 66.31843539705682 -139.47114733516173 1.9725 0 0 0      
134 3 -1.20003879748933 64.34601128141253 -139.48844930108845 1.9725 0 0 0      
135 3 -1.20003879748933 66.33573736298354 -141.44357145080602 1.9725 0 0 0      
136 3 -1.20003879748933 66.31843539705682 -139.47114733516173 0.0 0 0 0      
137 1 1.19989669421488 68.30816147862782 -141.42626948487933 0.0 0 0 0      
138 2 2.39992262738201 70.26328362834533 -139.43654340330832 1.9725 0 0 0      
139 3 -1.20003879748933 68.2908595127011 -139.45384536923504 1.9725 0 0 0      
140 3 -1.20003879748933 70.28058559427205 -141.4089675189526 1.9725 0 0 0      
141 3 -1.20003879748933 70.26328362834533 -139.43654340330832 0.0 0 0 0      
142 1 1.19989669421488 72.25300970991634 -141.39166555302592 0.0 0 0 0      
143 2 2.39992262738201 74.20813185963391 -139.4019394714549 1.9725 0 0 0      
144 3 -1.20003879748933 72.23570774398962 -139.41924143738163 1.9725 0 0 0      
145 3 -1.20003879748933 74.22543382556063 -141.3743635870992 1.9725 0 0 0      
146 3 -1.20003879748933 74.20813185963391 -139.4019394714549 0.0 0 0 0      
147 1 1.19989669421488 76.19785794120486 -141.3570616211725 0.0 0 0 0      
148 2 2.39992262738201 78.15298009092243 -139.3673355396015 1.9725 0 0 0      
149 3 -1.20003879748933 76.18055597527814 -139.38463750552822 1.9725 0 0 0      
150 3 -1.20003879748933 78.17028205684915 -141.3397596552458 1.9725 0 0 0      
151 3 -1.20003879748933 78.15298009092243 -139.3673355396015 0.0 0 0 0      
152 1 1.19989669421488 80.14270617249338 -141.3224576893191 0.0 0 0 0      
153 2 2.39992262738201 82.09782832221094 -139.33273160774812 1.9725 0 0 0      
154 3 -1.20003879748933 80.12540420656666 -139.3500335736748 1.9725 0 0 0      
155 3 -1.20003879748933 82.11513028813766 -141.3051557233924 1.9725 0 0 0      
156 3 -1.20003879748933 82.09782832221094 -139.33273160774812 0.0 0 0 0      
157 1 1.19989669421488 84.08755440378195 -141.28785375746568 0.0 0 0 0      
158 2 2.39992262738201 86.04267655349946 -139.2981276758947 1.9725 0 0 0      
159 3 -1.20003879748933 84.07025243785523 -139.3154296418214 1.9725 0 0 0      
160 3 -1.20003879748933 86.05997851942618 -141.270551791539 1.9725 0 0 0      
161 3 -1.20003879748933 86.04267655349946 -139.2981276758947 0.0 0 0 0      
162 1 1.19989669421488 88.03240263507047 -141.25324982561227 0.0 0 0 0      
163 2 2.39992262738201 89.98752478478804 -139.2635237440413 1.9725 0 0 0      
164 3 -1.20003879748933 88.01510066914375 -139.28082570996798 1.9725 0 0 0      
165 3 -1.20003879748933 90.00482675071476 -141.23594785968558 1.9725 0 0 0      
166 3 -1.20003879748933 89.98752478478804 -139.2635237440413 0.0 0 0 0      
167 1 1.19989669421488 91.977250866359 -141.21864589375886 0.0 0 0 0      
168 2 2.39992262738201 93.93237301607655 -139.22891981218788 1.9725 0 0 0      
169 3 -1.20003879748933 91.95994890043228 -139.24622177811457 1.9725 0 0 0      
170 3 -1.20003879748933 93.94967498200327 -141.20134392783217 1.9725 0 0 0      
171 3 -1.20003879748933 93.93237301607655 -139.22891981218788 0.0 0 0 0      
172 1 1.19989669421488 95.9220990976475 -141.18404196190545 0.0 0 0 0      
173 2 2.39992262738201 97.87722124736509 -139.19431588033447 1.9725 0 0 0      
174 3 -1.20003879748933 95.90479713172084 -139.21161784626116 1.9725 0 0 0      
175 3 -1.20003879748933 97.8945232132918 -141.16673999597876 1.9725 0 0 0      
176 3 -1.20003879748933 97.87722124736509 -139.19431588033447 0.0 0 0 0      
177 1 1.19989669421488 99.86694732893608 -141.14943803005204 0.0 0 0 0      
178 2 2.39992262738201 101.82206947865365 -139.15971194848106 1.9725 0 0 0      
179 3 -1.20003879748933 99.84964536300936 -139.17701391440775 1.9725 0 0 0      
180 3 -1.20003879748933 101.83937144458032 -141.13213606412535 1.9725 0 0 0      
181 3 -1.20003879748933 101.82206947865365 -139.15971194848106 0.0 0 0 0      
182 1 1.19989669421488 103.8117955602246 -141.11483409819866 0.0 0 0 0      
183 2 2.39992262738201 105.76691770994216 -139.12510801662765 1.9725 0 0 0      
184 3 -1.20003879748933 103.79449359429788 -139.14240998255437 1.9725 0 0 0      
185 3 -1.20003879748933 105.78421967586888 -141.09753213227194 1.9725 0 0 0      
186 3 -1.20003879748933 105.76691770994216 -139.12510801662765 0.0 0 0 0      
187 1 1.19989669421488 107.75664379151311 -141.08023016634525 0.0 0 0 0      
188 2 2.39992262738201 109.71176594123068 -139.09050408477424 1.9725 0 0 0      
189 3 -1.20003879748933 107.73934182558644 -139.10780605070096 1.9725 0 0 0      
190 3 -1.20003879748933 109.7290679071574 -141.06292820041853 1.9725 0 0 0      
191 3 -1.20003879748933 109.71176594123068 -139.09050408477424 0.0 0 0 0      
192 1 1.19989669421488 111.70149202280167 -141.04562623449183 0.0 0 0 0      
193 2 2.39992262738201 113.65661417251926 -139.05590015292083 1.9725 0 0 0      
194 3 -1.20003879748933 111.68419005687495 -139.07320211884755 1.9725 0 0 0      
195 3 -1.20003879748933 113.67391613844592 -141.02832426856511 1.9725 0 0 0      
196 3 -1.20003879748933 113.65661417251926 -139.05590015292083 0.0 0 0 0      
197 1 1.19989669421488 115.6463402540902 -141.01102230263842 0.0 0 0 0      
198 2 2.39992262738201 117.60146240380776 -139.02129622106742 1.9725 0 0 0      
199 3 -1.20003879748933 115.62903828816349 -139.03859818699414 1.9725 0 0 0      
200 3 -1.20003879748933 117.61876436973448 -140.9937203367117 1.9725 0 0 0      
201 3 -1.20003879748933 117.60146240380776 -139.02129622106742 0.0 0 0 0      
202 1 1.19989669421488 119.59118848537872 -140.976418370785 0.0 0 0 0      
203 2 2.39992262738201 121.54631063509628 -138.98669228921403 1.9725 0 0 0      
204 3 -1.20003879748933 119.57388651945206 -139.00399425514073 1.9725 0 0 0      
205 3 -1.20003879748933 121.563612601023 -140.95911640485832 1.9725 0 0 0      
206 3 -1.20003879748933 121.54631063509628 -138.98669228921403 0.0 0 0 0      
207 1 1.19989669421488 123.5360367166673 -140.9418144389316 0.0 0 0 0      
208 2 2.39992262738201 125.49115886638486 -138.95208835736062 1.9725 0 0 0      
209 3 -1.20003879748933 123.51873475074058 -138.9693903232873 1.9725 0 0 0      
210 3 -1.20003879748933 125.50846083231151 -140.9245124730049 1.9725 0 0 0      
211 3 -1.20003879748933 125.49115886638486 -138.95208835736062 0.0 0 0 0      
212 1 1.19989669421488 127.4808849479558 -140.9072105070782 0.0 0 0 0      
213 2 2.39992262738201 129.43600709767338 -138.9174844255072 1.9725 0 0 0      
214 3 -1.20003879748933 127.4635829820291 -138.9347863914339 1.9725 0 0 0      
215 3 -1.20003879748933 129.4533090636001 -140.8899085411515 1.9725 0 0 0      
216 3 -1.20003879748933 129.43600709767338 -138.9174844255072 0.0 0 0 0      
217 1 1.19989669421488 131.42573317924433 -140.87260657522478 0.0 0 0 0      
218 2 2.39992262738201 133.3808553289619 -138.8828804936538 1.9725 0 0 0      
219 3 -1.20003879748933 131.40843121331767 -138.9001824595805 1.9725 0 0 0      
220 3 -1.20003879748933 133.39815729488862 -140.8553046092981 1.9725 0 0 0      
221 3 -1.20003879748933 133.3808553289619 -138.8828804936538 0.0 0 0 0      
222 1 1.19989669421488 135.3705814105329 -140.83800264337137 0.0 0 0 0      
223 2 2.39992262738201 137.32570356025047 -138.8482765618004 1.9725 0 0 0      
224 3 -1.20003879748933 135.3532794446062 -138.86557852772708 1.9725 0 0 0      
225 3 -1.20003879748933 137.34300552617714 -140.82070067744468 1.9725 0 0 0      
226 3 -1.20003879748933 137.32570356025047 -138.8482765618004 0.0 0 0 0      
227 1 1.19989669421488 139.31542964182137 -140.80339871151796 0.0 0 0 0      
228 2 2.39992262738201 141.27055179153894 -138.81367262994698 1.9725 0 0 0      
229 3 -1.20003879748933 139.2981276758947 -138.83097459587367 1.9725 0 0 0      
230 3 -1.20003879748933 141.28785375746563 -140.7860967455913 1.9725 0 0 0      
231 3 -1.20003879748933 141.27055179153894 -138.81367262994698 0.0 0 0 0      
232 1 1.19989669421488 143.26027787310994 -140.76879477966455 0.0 0 0 0      
233 2 2.39992262738201 145.2154000228275 -138.77906869809357 1.9725 0 0 0      
234 3 -1.20003879748933 143.24297590718328 -138.7963706640203 1.9725 0 0 0      
235 3 -1.20003879748933 145.23270198875423 -140.75149281373783 1.9725 0 0 0      
236 3 -1.20003879748933 145.2154000228275 -138.77906869809357 0.0 0 0 0      
237 1 1.19989669421488 147.20512610439852 -140.73419084781116 0.0 0 0 0      
238 2 2.39992262738201 149.16024825411608 -138.74446476624016 1.9725 0 0 0      
239 3 -1.20003879748933 147.1878241384718 -138.76176673216688 1.9725 0 0 0      
240 3 -1.20003879748933 149.17755022004275 -140.71688888188444 1.9725 0 0 0      
241 3 -1.20003879748933 149.16024825411608 -138.74446476624016 0.0 0 0 0      
242 1 1.19989669421488 151.14997433568698 -140.69958691595775 0.0 0 0 0      
243 2 2.39992262738201 153.10509648540454 -138.70986083438677 1.9725 0 0 0      
244 3 -1.20003879748933 151.13267236976031 -138.7271628003135 1.9725 0 0 0      
245 3 -1.20003879748933 153.12239845133126 -140.68228495003103 1.9725 0 0 0      
246 3 -1.20003879748933 153.10509648540454 -138.70986083438677 0.0 0 0 0      
247 1 1.19989669421488 155.09482256697555 -140.66498298410434 0.0 0 0 0      
248 2 2.39992262738201 157.04994471669312 -138.6752569025333 1.9725 0 0 0      
249 3 -1.20003879748933 155.0775206010489 -138.69255886846005 1.9725 0 0 0      
250 3 -1.20003879748933 157.06724668261978 -140.64768101817762 1.9725 0 0 0      
251 3 -1.20003879748933 157.04994471669312 -138.6752569025333 0.0 0 0 0      
252 1 1.19989669421488 159.03967079826407 -140.63037905225093 0.0 0 0 0      
253 2 2.39992262738201 160.99479294798164 -138.64065297067995 1.9725 0 0 0      
254 3 -1.20003879748933 159.02236883233735 -138.65795493660664 1.9725 0 0 0      
255 3 -1.20003879748933 161.01209491390836 -140.61307708632424 1.9725 0 0 0      
256 3 -1.20003879748933 160.99479294798164 -138.64065297067995 0.0 0 0 0      
257 1 1.19989669421488 162.9845190295526 -140.59577512039752 0.0 0 0 0      
258 2 2.39992262738201 164.9396411792702 -138.60604903882654 1.9725 0 0 0      
259 3 -1.20003879748933 162.96721706362592 -138.62335100475323 1.9725 0 0 0      
260 3 -1.20003879748933 164.95694314519693 -140.57847315447083 1.9725 0 0 0      
261 3 -1.20003879748933 164.9396411792702 -138.60604903882654 0.0 0 0 0      
262 1 1.19989669421488 166.92936726084116 -140.5611711885441 0.0 0 0 0      
263 2 2.39992262738201 168.88448941055873 -138.57144510697313 1.9725 0 0 0      
264 3 -1.20003879748933 166.9120652949145 -138.58874707289982 1.9725 0 0 0      
265 3 -1.20003879748933 168.9017913764854 -140.54386922261742 1.9725 0 0 0      
266 3 -1.20003879748933 168.88448941055873 -138.57144510697313 0.0 0 0 0      
267 1 1.19989669421488 170.87421549212968 -140.5265672566907 0.0 0 0 0      
268 2 2.39992262738201 172.82933764184725 -138.53684117511972 1.9725 0 0 0      
269 3 -1.20003879748933 170.85691352620296 -138.5541431410464 1.9725 0 0 0      
270 3 -1.20003879748933 172.84663960777397 -140.509265290764 1.9725 0 0 0      
271 3 -1.20003879748933 172.82933764184725 -138.53684117511972 0.0 0 0 0      
272 1 1.19989669421488 174.8190637234182 -140.4919633248373 0.0 0 0 0      
273 2 2.39992262738201 176.77418587313576 -138.5022372432663 1.9725 0 0 0      
274 3 -1.20003879748933 174.80176175749153 -138.519539209193 1.9725 0 0 0      
275 3 -1.20003879748933 176.79148783906248 -140.4746613589106 1.9725 0 0 0      
276 3 -1.20003879748933 176.77418587313576 -138.5022372432663 0.0 0 0 0      
277 1 1.19989669421488 178.76391195470677 -140.45735939298388 0.0 0 0 0      
278 2 2.39992262738201 180.71903410442437 -138.4676333114129 1.9725 0 0 0      
279 3 -1.20003879748933 178.7466099887801 -138.4849352773396 1.9725 0 0 0      
280 3 -1.20003879748933 180.736336070351 -140.44005742705718 1.9725 0 0 0      
281 3 -1.20003879748933 180.71903410442437 -138.4676333114129 0.0 0 0 0      
282 1 1.19989669421488 182.7087601859953 -140.4227554611305 0.0 0 0 0      
283 2 2.39992262738201 184.66388233571288 -138.43302937955949 1.9725 0 0 0      
284 3 -1.20003879748933 182.69145822006857 -138.4503313454862 1.9725 0 0 0      
285 3 -1.20003879748933 184.6811843016396 -140.40545349520377 1.9725 0 0 0      
286 3 -1.20003879748933 184.66388233571288 -138.43302937955949 0.0 0 0 0      
287 1 1.19989669421488 186.6536084172838 -140.38815152927708 0.0 0 0 0      
288 2 2.39992262738201 188.60873056700137 -138.39842544770607 1.9725 0 0 0      
289 3 -1.20003879748933 186.63630645135717 -138.4157274136328 1.9725 0 0 0      
290 3 -1.20003879748933 188.6260325329281 -140.37084956335036 1.9725 0 0 0      
291 3 -1.20003879748933 188.60873056700137 -138.39842544770607 0.0 0 0 0      
292 1 1.19989669421488 190.5984566485724 -140.35354759742367 0.0 0 0 0      
293 2 2.39992262738201 192.55357879828995 -138.36382151585266 1.9725 0 0 0      
294 3 -1.20003879748933 190.5811546826457 -138.38112348177938 1.9725 0 0 0      
295 3 -1.20003879748933 192.5708807642166 -140.33624563149695 1.9725 0 0 0      
296 3 -1.20003879748933 192.55357879828995 -138.36382151585266 0.0 0 0 0      
297 1 1.19989669421488 194.54330487986084 -140.31894366557026 0.0 0 0 0      
298 2 2.39992262738201 196.4984270295785 -138.32921758399925 1.9725 0 0 0      
299 3 -1.20003879748933 194.52600291393415 -138.34651954992597 1.9725 0 0 0      
300 3 -1.20003879748933 196.5157289955052 -140.30164169964354 1.9725 0 0 0      
301 3 -1.20003879748933 196.4984270295785 -138.32921758399925 0.0 0 0 0      
302 1 1.19989669421488 198.48815311114944 -140.28433973371685 0.0 0 0 0      
303 2 2.39992262738201 200.44327526086695 -138.29461365214587 1.9725 0 0 0      
304 3 -1.20003879748933 198.47085114522275 -138.31191561807256 1.9725 0 0 0      
305 3 -1.20003879748933 200.4605772267937 -140.26703776779016 1.9725 0 0 0      
306 3 -1.20003879748933 200.44327526086695 -138.29461365214587 0.0 0 0 0      
307 1 1.19989669421488 202.433001342438 -140.24973580186344 0.0 0 0 0      
308 2 2.39992262738201 204.3881234921556 -138.26000972029246 1.9725 0 0 0      
309 3 -1.20003879748933 202.41569937651127 -138.27731168621915 1.9725 0 0 0      
310 3 -1.20003879748933 204.40542545808225 -140.23243383593675 1.9725 0 0 0      
311 3 -1.20003879748933 204.3881234921556 -138.26000972029246 0.0 0 0 0      
312 1 1.19989669421488 206.3778495737265 -140.21513187001003 0.0 0 0 0      
313 2 2.39992262738201 208.33297172344407 -138.22540578843905 1.9725 0 0 0      
314 3 -1.20003879748933 206.3605476077998 -138.24270775436574 1.9725 0 0 0      
315 3 -1.20003879748933 208.3502736893708 -140.1978299040833 1.9725 0 0 0      
316 3 -1.20003879748933 208.33297172344407 -138.22540578843905 0.0 0 0 0      
317 1 1.19989669421488 210.32269780501505 -140.18052793815662 0.0 0 0 0      
318 2 2.39992262738201 212.2778199547326 -138.19080185658564 1.9725 0 0 0      
319 3 -1.20003879748933 210.3053958390884 -138.20810382251233 1.9725 0 0 0      
320 3 -1.20003879748933 212.2951219206593 -140.16322597222992 1.9725 0 0 0      
321 3 -1.20003879748933 212.2778199547326 -138.19080185658564 0.0 0 0 0      
322 1 1.19989669421488 214.2675460363036 -140.1459240063032 0.0 0 0 0      
323 2 2.39992262738201 216.2226681860212 -138.15619792473225 1.9725 0 0 0      
324 3 -1.20003879748933 214.25024407037688 -138.17349989065892 1.9725 0 0 0      
325 3 -1.20003879748933 216.23997015194783 -140.1286220403765 1.9725 0 0 0      
326 3 -1.20003879748933 216.2226681860212 -138.15619792473225 0.0 0 0 0      
327 1 1.19989669421488 218.2123942675921 -140.1113200744498 0.0 0 0 0      
328 2 2.39992262738201 220.16751641730968 -138.1215939928788 1.9725 0 0 0      
329 3 -1.20003879748933 218.19509230166543 -138.1388959588055 1.9725 0 0 0      
330 3 -1.20003879748933 220.1848183832364 -140.0940181085231 1.9725 0 0 0      
331 3 -1.20003879748933 220.16751641730968 -138.1215939928788 0.0 0 0 0      
332 1 1.19989669421488 222.15724249888063 -140.0767161425964 0.0 0 0 0      
333 2 2.39992262738201 224.1123646485982 -138.0869900610254 1.9725 0 0 0      
334 3 -1.20003879748933 222.13994053295397 -138.10429202695212 1.9725 0 0 0      
335 3 -1.20003879748933 224.1296666145249 -140.0594141766697 1.9725 0 0 0      
336 3 -1.20003879748933 224.1123646485982 -138.0869900610254 0.0 0 0 0      
337 1 1.19989669421488 226.10209073016915 -140.042112210743 0.0 0 0 0      
338 2 2.39992262738201 228.05721287988675 -138.052386129172 1.9725 0 0 0      
339 3 -1.20003879748933 226.0847887642425 -138.0696880950987 1.9725 0 0 0      
340 3 -1.20003879748933 228.07451484581344 -140.02481024481628 1.9725 0 0 0      
341 3 -1.20003879748933 228.05721287988675 -138.052386129172 0.0 0 0 0      
342 1 1.19989669421488 230.04693896145773 -140.0075082788896 0.0 0 0 0      
343 2 2.39992262738201 232.0020611111753 -138.01778219731858 1.9725 0 0 0      
344 3 -1.20003879748933 230.02963699553104 -138.0350841632453 1.9725 0 0 0      
345 3 -1.20003879748933 232.019363077102 -139.99020631296287 1.9725 0 0 0      
346 3 -1.20003879748933 232.0020611111753 -138.01778219731858 0.0 0 0 0      
347 1 1.19989669421488 233.99178719274624 -139.97290434703618 0.0 0 0 0      
348 2 2.39992262738201 235.9469093424638 -137.98317826546517 1.9725 0 0 0      
349 3 -1.20003879748933 233.97448522681955 -138.0004802313919 1.9725 0 0 0      
350 3 -1.20003879748933 235.9642113083905 -139.95560238110946 1.9725 0 0 0      
351 3 -1.20003879748933 235.9469093424638 -137.98317826546517 0.0 0 0 0      
352 1 1.19989669421488 1.2111376148693012 -138.0696880950987 0.0 0 0 0      
353 2 2.39992262738201 3.1662597645868686 -136.07996201352776 1.9725 0 0 0      
354 3 -1.20003879748933 1.1938356489425814 -136.09726397945445 1.9725 0 0 0      
355 3 -1.20003879748933 3.1835617305135315 -138.05238612917202 1.9725 0 0 0      
356 3 -1.20003879748933 3.1662597645868686 -136.07996201352776 0.0 0 0 0      
357 1 1.19989669421488 5.155985846157819 -138.0350841632453 0.0 0 0 0      
358 2 2.39992262738201 7.111107995875386 -136.04535808167435 1.9725 0 0 0      
359 3 -1.20003879748933 5.138683880231099 -136.06266004760104 1.9725 0 0 0      
360 3 -1.20003879748933 7.128409961802106 -138.0177821973186 1.9725 0 0 0      
361 3 -1.20003879748933 7.111107995875386 -136.04535808167435 0.0 0 0 0      
362 1 1.19989669421488 9.100834077446336 -138.0004802313919 0.0 0 0 0      
363 2 2.39992262738201 11.055956227163904 -136.01075414982094 1.9725 0 0 0      
364 3 -1.20003879748933 9.083532111519672 -136.02805611574763 1.9725 0 0 0      
365 3 -1.20003879748933 11.073258193090624 -137.9831782654652 1.9725 0 0 0      
366 3 -1.20003879748933 11.055956227163904 -136.01075414982094 0.0 0 0 0      
367 1 1.19989669421488 13.04568230873491 -137.96587629953848 0.0 0 0 0      
368 2 2.39992262738201 15.000804458452478 -135.97615021796753 1.9725 0 0 0      
369 3 -1.20003879748933 13.028380342808193 -135.99345218389422 1.9725 0 0 0      
370 3 -1.20003879748933 15.01810642437914 -137.9485743336118 1.9725 0 0 0      
371 3 -1.20003879748933 15.000804458452478 -135.97615021796753 0.0 0 0 0      
372 1 1.19989669421488 16.99053054002343 -137.93127236768507 0.0 0 0 0      