LAMMPS data file via write_data, version 19 Nov 2024, timestep = 0, units =.1 metal
              
28730 atoms             
3 atom types            
              
0 237.520453066678 xlo xhi           
-142.512271840007 47.5040906133356 ylo yhi           
0 7.89 zlo zhi           
              
Masses              
              
1 87.62             
2 47.867             
3 15.999             
              
Atoms # charge            
              
1 2 2.39969015403716 87.32399828636017 -142.48637719369444 1.9725 0 0 0      
2 3 -1.20015527937199 87.32399828636017 -142.48637719369444 0.0 0 0 0      
3 2 2.39969015403716 91.26839434694898 -142.41735026263416 1.9725 0 0 0      
4 3 -1.20015527937199 89.29619631665457 -142.4518637281643 1.9725 0 0 0      
5 3 -1.20015527937199 91.26839434694898 -142.41735026263416 0.0 0 0 0      
6 2 2.39969015403716 95.21279040753774 -142.34832333157385 1.9725 0 0 0      
7 3 -1.20015527937199 93.24059237724332 -142.382836797104 1.9725 0 0 0      
8 3 -1.20015527937199 95.21279040753774 -142.34832333157385 0.0 0 0 0      
9 2 2.39969015403716 99.1571864681265 -142.27929640051354 1.9725 0 0 0      
10 3 -1.20015527937199 97.18498843783216 -142.3138098660437 1.9725 0 0 0      
11 3 -1.20015527937199 99.1571864681265 -142.27929640051354 0.0 0 0 0      
12 2 2.39969015403716 103.10158252871533 -142.21026946945324 1.9725 0 0 0      
13 3 -1.20015527937199 101.1293844984209 -142.2447829349834 1.9725 0 0 0      
14 3 -1.20015527937199 103.10158252871533 -142.21026946945324 0.0 0 0 0      
15 2 2.39969015403716 107.04597858930411 -142.14124253839293 1.9725 0 0 0      
16 3 -1.20015527937199 235.5889157088172 47.17004638956623 5.917499999999999 0 0 0      
17 3 -1.20015527937199 107.04597858930411 -142.14124253839293 0.0 0 0 0      
18 2 2.39969015403716 110.99037464989294 -142.07221560733262 1.9725 0 0 0      
19 3 -1.20015527937199 109.01817661959852 -142.10672907286278 1.9725 0 0 0      
20 3 -1.20015527937199 110.99037464989294 -142.07221560733262 0.0 0 0 0      
21 2 2.39969015403716 114.9347707104817 -142.00318867627232 1.9725 0 0 0      
22 3 -1.20015527937199 112.9625726801873 -142.03770214180247 1.9725 0 0 0      
23 3 -1.20015527937199 114.9347707104817 -142.00318867627232 0.0 0 0 0      
24 2 2.39969015403716 118.87916677107052 -141.934161745212 1.9725 0 0 0      
25 3 -1.20015527937199 116.90696874077612 -141.96867521074216 1.9725 0 0 0      
26 3 -1.20015527937199 118.87916677107052 -141.934161745212 0.0 0 0 0      
27 2 2.39969015403716 122.82356283165927 -141.8651348141517 1.9725 0 0 0      
28 3 -1.20015527937199 120.85136480136488 -141.89964827968186 1.9725 0 0 0      
29 3 -1.20015527937199 122.82356283165927 -141.8651348141517 0.0 0 0 0      
30 2 2.39969015403716 126.76795889224807 -141.79610788309142 1.9725 0 0 0      
31 3 -1.20015527937199 124.79576086195368 -141.83062134862158 1.9725 0 0 0      
32 3 -1.20015527937199 126.76795889224807 -141.79610788309142 0.0 0 0 0      
33 2 2.39969015403716 130.7123549528369 -141.72708095203112 1.9725 0 0 0      
34 3 -1.20015527937199 128.7401569225425 -141.76159441756127 1.9725 0 0 0      
35 3 -1.20015527937199 130.7123549528369 -141.72708095203112 0.0 0 0 0      
36 2 2.39969015403716 134.65675101342572 -141.6580540209708 1.9725 0 0 0      
37 3 -1.20015527937199 132.6845529831313 -141.69256748650096 1.9725 0 0 0      
38 3 -1.20015527937199 134.65675101342572 -141.6580540209708 0.0 0 0 0      
39 2 2.39969015403716 138.60114707401448 -141.5890270899105 1.9725 0 0 0      
40 3 -1.20015527937199 136.62894904372007 -141.62354055544066 1.9725 0 0 0      
41 3 -1.20015527937199 138.60114707401448 -141.5890270899105 0.0 0 0 0      
42 2 2.39969015403716 142.54554313460324 -141.5200001588502 1.9725 0 0 0      
43 3 -1.20015527937199 140.57334510430883 -141.55451362438035 1.9725 0 0 0      
44 3 -1.20015527937199 142.54554313460324 -141.5200001588502 0.0 0 0 0      
45 2 2.39969015403716 146.48993919519205 -141.4509732277899 1.9725 0 0 0      
46 3 -1.20015527937199 144.51774116489764 -141.48548669332004 1.9725 0 0 0      
47 3 -1.20015527937199 146.48993919519205 -141.4509732277899 0.0 0 0 0      
48 2 2.39969015403716 150.4343352557809 -141.38194629672958 1.9725 0 0 0      
49 3 -1.20015527937199 148.46213722548646 -141.41645976225973 1.9725 0 0 0      
50 3 -1.20015527937199 150.4343352557809 -141.38194629672958 0.0 0 0 0      
51 2 2.39969015403716 154.37873131636968 -141.31291936566927 1.9725 0 0 0      
52 3 -1.20015527937199 152.40653328607527 -141.34743283119943 1.9725 0 0 0      
53 3 -1.20015527937199 154.37873131636968 -141.31291936566927 0.0 0 0 0      
54 2 2.39969015403716 158.32312737695844 -141.24389243460897 1.9725 0 0 0      
55 3 -1.20015527937199 156.35092934666403 -141.27840590013912 1.9725 0 0 0      
56 3 -1.20015527937199 158.32312737695844 -141.24389243460897 0.0 0 0 0      
57 2 2.39969015403716 162.2675234375472 -141.1748655035487 1.9725 0 0 0      
58 3 -1.20015527937199 160.2953254072528 -141.20937896907884 1.9725 0 0 0      
59 3 -1.20015527937199 162.2675234375472 -141.1748655035487 0.0 0 0 0      
60 2 2.39969015403716 166.211919498136 -141.10583857248838 1.9725 0 0 0      
61 3 -1.20015527937199 164.2397214678416 -141.14035203801853 1.9725 0 0 0      
62 3 -1.20015527937199 166.211919498136 -141.10583857248838 0.0 0 0 0      
63 2 2.39969015403716 170.15631555872483 -141.03681164142807 1.9725 0 0 0      
64 3 -1.20015527937199 168.18411752843042 -141.07132510695823 1.9725 0 0 0      
65 3 -1.20015527937199 170.15631555872483 -141.03681164142807 0.0 0 0 0      
66 2 2.39969015403716 174.10071161931364 -140.96778471036777 1.9725 0 0 0      
67 3 -1.20015527937199 172.12851358901924 -141.00229817589792 1.9725 0 0 0      
68 3 -1.20015527937199 174.10071161931364 -140.96778471036777 0.0 0 0 0      
69 2 2.39969015403716 178.0451076799024 -140.89875777930746 1.9725 0 0 0      
70 3 -1.20015527937199 176.072909649608 -140.9332712448376 1.9725 0 0 0      
71 3 -1.20015527937199 178.0451076799024 -140.89875777930746 0.0 0 0 0      
72 2 2.39969015403716 181.9895037404912 -140.82973084824715 1.9725 0 0 0      
73 3 -1.20015527937199 180.0173057101968 -140.8642443137773 1.9725 0 0 0      
74 3 -1.20015527937199 181.9895037404912 -140.82973084824715 0.0 0 0 0      
75 2 2.39969015403716 185.93389980108 -140.76070391718685 1.9725 0 0 0      
76 3 -1.20015527937199 183.9617017707856 -140.795217382717 1.9725 0 0 0      
77 3 -1.20015527937199 185.93389980108 -140.76070391718685 0.0 0 0 0      
78 2 2.39969015403716 189.8782958616688 -140.69167698612654 1.9725 0 0 0      
79 3 -1.20015527937199 187.9060978313744 -140.7261904516567 1.9725 0 0 0      
80 3 -1.20015527937199 189.8782958616688 -140.69167698612654 0.0 0 0 0      
81 2 2.39969015403716 193.8226919222576 -140.62265005506623 1.9725 0 0 0      
82 3 -1.20015527937199 191.8504938919632 -140.65716352059638 1.9725 0 0 0      
83 3 -1.20015527937199 193.8226919222576 -140.62265005506623 0.0 0 0 0      
84 2 2.39969015403716 197.7670879828464 -140.55362312400595 1.9725 0 0 0      
85 3 -1.20015527937199 195.794889952552 -140.5881365895361 1.9725 0 0 0      
86 3 -1.20015527937199 197.7670879828464 -140.55362312400595 0.0 0 0 0      
87 1 1.19958649207443 199.77379947867087 -142.49130768877018 0.0 0 0 0      
88 2 2.39969015403716 201.7114840434352 -140.48459619294565 1.9725 0 0 0      
89 3 -1.20015527937199 199.7392860131408 -140.5191096584758 1.9725 0 0 0      
90 3 -1.20015527937199 201.74599750896533 -142.45679422324002 1.9725 0 0 0      
91 3 -1.20015527937199 201.7114840434352 -140.48459619294565 0.0 0 0 0      
92 1 1.19958649207443 203.71819553925968 -142.42228075770987 0.0 0 0 0      
93 2 2.39969015403716 205.65588010402396 -140.41556926188534 1.9725 0 0 0      
94 3 -1.20015527937199 203.68368207372956 -140.4500827274155 1.9725 0 0 0      
95 3 -1.20015527937199 205.6903935695541 -142.38776729217972 1.9725 0 0 0      
96 3 -1.20015527937199 205.65588010402396 -140.41556926188534 0.0 0 0 0      
97 1 1.19958649207443 207.6625915998485 -142.35325382664956 0.0 0 0 0      
98 2 2.39969015403716 209.60027616461275 -140.34654233082503 1.9725 0 0 0      
99 3 -1.20015527937199 207.62807813431837 -140.38105579635518 1.9725 0 0 0      
100 3 -1.20015527937199 209.6347896301429 -142.3187403611194 1.9725 0 0 0      
101 3 -1.20015527937199 209.60027616461275 -140.34654233082503 0.0 0 0 0      
102 1 1.19958649207443 211.6069876604373 -142.28422689558926 0.0 0 0 0      
103 2 2.39969015403716 213.5446722252016 -140.27751539976472 1.9725 0 0 0      
104 3 -1.20015527937199 211.5724741949072 -140.31202886529488 1.9725 0 0 0      
105 3 -1.20015527937199 213.5791856907317 -142.2497134300591 1.9725 0 0 0      
106 3 -1.20015527937199 213.5446722252016 -140.27751539976472 0.0 0 0 0      
107 1 1.19958649207443 215.55138372102613 -142.21519996452895 0.0 0 0 0      
108 2 2.39969015403716 217.4890682857904 -140.20848846870442 1.9725 0 0 0      
109 3 -1.20015527937199 215.516870255496 -140.24300193423457 1.9725 0 0 0      
110 3 -1.20015527937199 217.5235817513205 -142.1806864989988 1.9725 0 0 0      
111 3 -1.20015527937199 217.4890682857904 -140.20848846870442 0.0 0 0 0      
112 1 1.19958649207443 219.49577978161489 -142.14617303346864 0.0 0 0 0      
113 2 2.39969015403716 221.43346434637917 -140.1394615376441 1.9725 0 0 0      
114 3 -1.20015527937199 219.46126631608476 -140.17397500317426 1.9725 0 0 0      
115 3 -1.20015527937199 221.4679778119093 -142.1116595679385 1.9725 0 0 0      
116 3 -1.20015527937199 221.43346434637917 -140.1394615376441 0.0 0 0 0      
117 1 1.19958649207443 223.44017584220367 -142.07714610240834 0.0 0 0 0      
118 2 2.39969015403716 225.37786040696795 -140.0704346065838 1.9725 0 0 0      
119 3 -1.20015527937199 223.40566237667352 -140.10494807211396 1.9725 0 0 0      
120 3 -1.20015527937199 225.41237387249808 -142.04263263687818 1.9725 0 0 0      
121 3 -1.20015527937199 225.37786040696795 -140.0704346065838 0.0 0 0 0      
122 1 1.19958649207443 227.3845719027925 -142.00811917134803 0.0 0 0 0      
123 2 2.39969015403716 229.3222564675567 -140.00140767552352 1.9725 0 0 0      
124 3 -1.20015527937199 227.3500584372623 -140.03592114105365 1.9725 0 0 0      
125 3 -1.20015527937199 229.35676993308687 -141.9736057058179 1.9725 0 0 0      
126 3 -1.20015527937199 229.3222564675567 -140.00140767552352 0.0 0 0 0      
127 1 1.19958649207443 231.32896796338127 -141.93909224028775 0.0 0 0 0      
128 2 2.39969015403716 233.26665252814556 -139.93238074446322 1.9725 0 0 0      
129 3 -1.20015527937199 231.29445449785112 -139.96689420999337 1.9725 0 0 0      
130 3 -1.20015527937199 233.30116599367568 -141.9045787747576 1.9725 0 0 0      
131 3 -1.20015527937199 233.26665252814556 -139.93238074446322 0.0 0 0 0      
132 1 1.19958649207443 235.2733640239701 -141.87006530922744 0.0 0 0 0      
133 2 2.39969015403716 237.21104858873431 -139.8633538134029 1.9725 0 0 0      
134 3 -1.20015527937199 235.2388505584399 -139.89786727893306 1.9725 0 0 0      
135 3 -1.20015527937199 237.24556205426447 -141.8355518436973 1.9725 0 0 0      
136 3 -1.20015527937199 237.21104858873431 -139.8633538134029 0.0 0 0 0      
137 2 2.39969015403716 0.478258022346381 -140.06057361643232 1.9725 0 0 0      
138 3 -1.20015527937199 0.5127714878765346 -142.0327716467267 1.9725 0 0 0      
139 3 -1.20015527937199 0.478258022346381 -140.06057361643232 0.0 0 0 0      
140 1 1.19958649207443 2.484969518170942 -141.99825818119655 0.0 0 0 0      
141 2 2.39969015403716 4.422654082935196 -139.991546685372 1.9725 0 0 0      
142 3 -1.20015527937199 2.4504560526407886 -140.02606015090217 1.9725 0 0 0      
143 3 -1.20015527937199 4.45716754846535 -141.9637447156664 1.9725 0 0 0      
144 3 -1.20015527937199 4.422654082935196 -139.991546685372 0.0 0 0 0      
145 1 1.19958649207443 6.429365578759757 -141.92923125013624 0.0 0 0 0      
146 2 2.39969015403716 8.367050143523954 -139.9225197543117 1.9725 0 0 0      
147 3 -1.20015527937199 6.394852113229604 -139.95703321984186 1.9725 0 0 0      
148 3 -1.20015527937199 8.401563609054108 -141.8947177846061 1.9725 0 0 0      
149 3 -1.20015527937199 8.367050143523954 -139.9225197543117 0.0 0 0 0      
150 1 1.19958649207443 10.373761639348515 -141.86020431907593 0.0 0 0 0      
151 2 2.39969015403716 12.31144620411277 -139.8534928232514 1.9725 0 0 0      
152 3 -1.20015527937199 10.339248173818362 -139.88800628878155 1.9725 0 0 0      
153 3 -1.20015527937199 12.345959669642925 -141.82569085354578 1.9725 0 0 0      
154 3 -1.20015527937199 12.31144620411277 -139.8534928232514 0.0 0 0 0      
155 1 1.19958649207443 14.31815769993733 -141.79117738801563 0.0 0 0 0      
156 2 2.39969015403716 16.255842264701585 -139.7844658921911 1.9725 0 0 0      
157 3 -1.20015527937199 14.283644234407175 -139.81897935772125 1.9725 0 0 0      
158 3 -1.20015527937199 16.290355730231738 -141.75666392248547 1.9725 0 0 0      
159 3 -1.20015527937199 16.255842264701585 -139.7844658921911 0.0 0 0 0      
160 1 1.19958649207443 18.26255376052609 -141.72215045695532 0.0 0 0 0      
161 2 2.39969015403716 20.200238325290343 -139.7154389611308 1.9725 0 0 0      
162 3 -1.20015527937199 18.22804029499593 -139.74995242666094 1.9725 0 0 0      
163 3 -1.20015527937199 20.234751790820496 -141.6876369914252 1.9725 0 0 0      
164 3 -1.20015527937199 20.200238325290343 -139.7154389611308 0.0 0 0 0      
165 1 1.19958649207443 22.206949821114904 -141.65312352589504 0.0 0 0 0      
166 2 2.39969015403716 24.14463438587916 -139.6464120300705 1.9725 0 0 0      
167 3 -1.20015527937199 22.17243635558475 -139.68092549560066 1.9725 0 0 0      
168 3 -1.20015527937199 24.17914785140931 -141.6186100603649 1.9725 0 0 0      
169 3 -1.20015527937199 24.14463438587916 -139.6464120300705 0.0 0 0 0      
170 1 1.19958649207443 26.15134588170372 -141.58409659483473 0.0 0 0 0      
171 2 2.39969015403716 28.089030446467973 -139.5773850990102 1.9725 0 0 0      
172 3 -1.20015527937199 26.116832416173565 -139.61189856454035 1.9725 0 0 0      
173 3 -1.20015527937199 28.12354391199807 -141.54958312930458 1.9725 0 0 0      
174 3 -1.20015527937199 28.089030446467973 -139.5773850990102 0.0 0 0 0      
175 1 1.19958649207443 30.09574194229248 -141.51506966377443 0.0 0 0 0      
176 2 2.39969015403716 32.03342650705673 -139.5083581679499 1.9725 0 0 0      
177 3 -1.20015527937199 30.061228476762324 -139.54287163348005 1.9725 0 0 0      
178 3 -1.20015527937199 32.067939972586885 -141.48055619824427 1.9725 0 0 0      
179 3 -1.20015527937199 32.03342650705673 -139.5083581679499 0.0 0 0 0      
180 1 1.19958649207443 34.04013800288129 -141.44604273271412 0.0 0 0 0      
181 2 2.39969015403716 35.977822567645546 -139.4393312368896 1.9725 0 0 0      
182 3 -1.20015527937199 34.00562453735114 -139.47384470241974 1.9725 0 0 0      
183 3 -1.20015527937199 36.0123360331757 -141.41152926718397 1.9725 0 0 0      
184 3 -1.20015527937199 35.977822567645546 -139.4393312368896 0.0 0 0 0      
185 1 1.19958649207443 37.98453406347005 -141.3770158016538 0.0 0 0 0      
186 2 2.39969015403716 39.92221862823431 -139.37030430582928 1.9725 0 0 0      
187 3 -1.20015527937199 37.9500205979399 -139.40481777135943 1.9725 0 0 0      
188 3 -1.20015527937199 39.95673209376446 -141.34250233612366 1.9725 0 0 0      
189 3 -1.20015527937199 39.92221862823431 -139.37030430582928 0.0 0 0 0      
190 1 1.19958649207443 41.92893012405887 -141.3079888705935 0.0 0 0 0      
191 2 2.39969015403716 43.86661468882312 -139.30127737476897 1.9725 0 0 0      
192 3 -1.20015527937199 41.89441665852871 -139.33579084029913 1.9725 0 0 0      
193 3 -1.20015527937199 43.90112815435327 -141.27347540506335 1.9725 0 0 0      
194 3 -1.20015527937199 43.86661468882312 -139.30127737476897 0.0 0 0 0      
195 1 1.19958649207443 45.87332618464768 -141.2389619395332 0.0 0 0 0      
196 2 2.39969015403716 47.811010749411935 -139.23225044370866 1.9725 0 0 0      
197 3 -1.20015527937199 45.83881271911753 -139.26676390923882 1.9725 0 0 0      
198 3 -1.20015527937199 47.84552421494209 -141.20444847400304 1.9725 0 0 0      
199 3 -1.20015527937199 47.811010749411935 -139.23225044370866 0.0 0 0 0      
200 1 1.19958649207443 49.81772224523644 -141.1699350084729 0.0 0 0 0      
201 2 2.39969015403716 51.75540681000069 -139.16322351264836 1.9725 0 0 0      
202 3 -1.20015527937199 49.783208779706285 -139.1977369781785 1.9725 0 0 0      
203 3 -1.20015527937199 51.78992027553085 -141.13542154294274 1.9725 0 0 0      
204 3 -1.20015527937199 51.75540681000069 -139.16322351264836 0.0 0 0 0      
205 1 1.19958649207443 53.76211830582525 -141.10090807741258 0.0 0 0 0      
206 2 2.39969015403716 55.69980287058951 -139.09419658158808 1.9725 0 0 0      
207 3 -1.20015527937199 53.7276048402951 -139.1287100471182 1.9725 0 0 0      
208 3 -1.20015527937199 55.73431633611966 -141.06639461188246 1.9725 0 0 0      
209 3 -1.20015527937199 55.69980287058951 -139.09419658158808 0.0 0 0 0      
210 1 1.19958649207443 57.70651436641407 -141.0318811463523 0.0 0 0 0      
211 2 2.39969015403716 59.644198931178266 -139.02516965052777 1.9725 0 0 0      
212 3 -1.20015527937199 57.67200090088392 -139.05968311605793 1.9725 0 0 0      
213 3 -1.20015527937199 59.67871239670842 -140.99736768082215 1.9725 0 0 0      
214 3 -1.20015527937199 59.644198931178266 -139.02516965052777 0.0 0 0 0      
215 1 1.19958649207443 61.65091042700283 -140.962854215292 0.0 0 0 0      
216 2 2.39969015403716 63.58859499176708 -138.95614271946746 1.9725 0 0 0      
217 3 -1.20015527937199 61.616396961472674 -138.99065618499762 1.9725 0 0 0      
218 3 -1.20015527937199 63.62310845729724 -140.92834074976184 1.9725 0 0 0      
219 3 -1.20015527937199 63.58859499176708 -138.95614271946746 0.0 0 0 0      
220 1 1.19958649207443 65.59530648759164 -140.8938272842317 0.0 0 0 0      
221 2 2.39969015403716 67.5329910523559 -138.88711578840716 1.9725 0 0 0      
222 3 -1.20015527937199 65.56079302206149 -138.9216292539373 1.9725 0 0 0      
223 3 -1.20015527937199 67.56750451788605 -140.85931381870154 1.9725 0 0 0      
224 3 -1.20015527937199 67.5329910523559 -138.88711578840716 0.0 0 0 0      
225 1 1.19958649207443 69.53970254818046 -140.82480035317138 0.0 0 0 0      
226 2 2.39969015403716 71.47738711294465 -138.81808885734685 1.9725 0 0 0      
227 3 -1.20015527937199 69.5051890826503 -138.852602322877 1.9725 0 0 0      
228 3 -1.20015527937199 71.51190057847481 -140.79028688764123 1.9725 0 0 0      
229 3 -1.20015527937199 71.47738711294465 -138.81808885734685 0.0 0 0 0      
230 1 1.19958649207443 73.48409860876922 -140.75577342211108 0.0 0 0 0      
231 2 2.39969015403716 75.42178317353347 -138.74906192628654 1.9725 0 0 0      
232 3 -1.20015527937199 73.44958514323906 -138.7835753918167 1.9725 0 0 0      
233 3 -1.20015527937199 75.45629663906362 -140.72125995658092 1.9725 0 0 0      
234 3 -1.20015527937199 75.42178317353347 -138.74906192628654 0.0 0 0 0      
235 1 1.19958649207443 77.42849466935803 -140.68674649105077 0.0 0 0 0      
236 2 2.39969015403716 79.36617923412223 -138.68003499522624 1.9725 0 0 0      
237 3 -1.20015527937199 77.39398120382788 -138.7145484607564 1.9725 0 0 0      
238 3 -1.20015527937199 79.40069269965238 -140.65223302552062 1.9725 0 0 0      
239 3 -1.20015527937199 79.36617923412223 -138.68003499522624 0.0 0 0 0      
240 1 1.19958649207443 81.37289072994679 -140.61771955999046 0.0 0 0 0      
241 2 2.39969015403716 83.31057529471104 -138.61100806416593 1.9725 0 0 0      
242 3 -1.20015527937199 81.33837726441664 -138.64552152969608 1.9725 0 0 0      
243 3 -1.20015527937199 83.3450887602412 -140.5832060944603 1.9725 0 0 0      
244 3 -1.20015527937199 83.31057529471104 -138.61100806416593 0.0 0 0 0      
245 1 1.19958649207443 85.3172867905356 -140.54869262893016 0.0 0 0 0      
246 2 2.39969015403716 87.25497135529986 -138.54198113310562 1.9725 0 0 0      
247 3 -1.20015527937199 85.28277332500545 -138.57649459863578 1.9725 0 0 0      
248 3 -1.20015527937199 87.28948482083001 -140.5141791634 1.9725 0 0 0      
249 3 -1.20015527937199 87.25497135529986 -138.54198113310562 0.0 0 0 0      
250 1 1.19958649207443 89.26168285112442 -140.47966569786985 0.0 0 0 0      
251 2 2.39969015403716 91.19936741588867 -138.47295420204534 1.9725 0 0 0      
252 3 -1.20015527937199 89.22716938559427 -138.5074676675755 1.9725 0 0 0      
253 3 -1.20015527937199 91.23388088141884 -140.44515223233972 1.9725 0 0 0      
254 3 -1.20015527937199 91.19936741588867 -138.47295420204534 0.0 0 0 0      
255 1 1.19958649207443 93.20607891171318 -140.41063876680957 0.0 0 0 0      
256 2 2.39969015403716 95.14376347647745 -138.40392727098504 1.9725 0 0 0      
257 3 -1.20015527937199 93.17156544618302 -138.4384407365152 1.9725 0 0 0      
258 3 -1.20015527937199 95.1782769420076 -140.37612530127942 1.9725 0 0 0      
259 3 -1.20015527937199 95.14376347647745 -138.40392727098504 0.0 0 0 0      
260 1 1.19958649207443 97.150474972302 -140.34161183574926 0.0 0 0 0      
261 2 2.39969015403716 99.0881595370662 -138.33490033992473 1.9725 0 0 0      
262 3 -1.20015527937199 97.11596150677184 -138.36941380545488 1.9725 0 0 0      
263 3 -1.20015527937199 99.12267300259634 -140.3070983702191 1.9725 0 0 0      
264 3 -1.20015527937199 99.0881595370662 -138.33490033992473 0.0 0 0 0      
265 1 1.19958649207443 101.09487103289077 -140.27258490468896 0.0 0 0 0      
266 2 2.39969015403716 103.032555597655 -138.26587340886442 1.9725 0 0 0      
267 3 -1.20015527937199 101.0603575673606 -138.30038687439458 1.9725 0 0 0      
268 3 -1.20015527937199 103.06706906318516 -140.2380714391588 1.9725 0 0 0      
269 3 -1.20015527937199 103.032555597655 -138.26587340886442 0.0 0 0 0      
270 1 1.19958649207443 105.03926709347957 -140.20355797362865 0.0 0 0 0      
271 2 2.39969015403716 106.97695165824382 -138.19684647780412 1.9725 0 0 0      
272 3 -1.20015527937199 105.0047536279494 -138.23135994333427 1.9725 0 0 0      
273 3 -1.20015527937199 107.01146512377396 -140.1690445080985 1.9725 0 0 0      
274 3 -1.20015527937199 106.97695165824382 -138.19684647780412 0.0 0 0 0      
275 1 1.19958649207443 108.98366315406838 -140.13453104256834 0.0 0 0 0      
276 2 2.39969015403716 110.92134771883264 -138.1278195467438 1.9725 0 0 0      
277 3 -1.20015527937199 108.94914968853824 -138.16233301227396 1.9725 0 0 0      
278 3 -1.20015527937199 110.9558611843628 -140.1000175770382 1.9725 0 0 0      
279 3 -1.20015527937199 110.92134771883264 -138.1278195467438 0.0 0 0 0      
280 1 1.19958649207443 112.92805921465714 -140.06550411150803 0.0 0 0 0      
281 2 2.39969015403716 114.8657437794214 -138.0587926156835 1.9725 0 0 0      
282 3 -1.20015527937199 112.893545749127 -138.09330608121363 1.9725 0 0 0      
283 3 -1.20015527937199 114.90025724495156 -140.03099064597788 1.9725 0 0 0      
284 3 -1.20015527937199 114.8657437794214 -138.0587926156835 0.0 0 0 0      
285 1 1.19958649207443 116.87245527524595 -139.99647718044773 0.0 0 0 0      
286 2 2.39969015403716 118.8101398400102 -137.9897656846232 1.9725 0 0 0      
287 3 -1.20015527937199 116.8379418097158 -138.02427915015335 1.9725 0 0 0      
288 3 -1.20015527937199 118.84465330554036 -139.96196371491757 1.9725 0 0 0      
289 3 -1.20015527937199 118.8101398400102 -137.9897656846232 0.0 0 0 0      
290 1 1.19958649207443 120.81685133583473 -139.92745024938742 0.0 0 0 0      
291 2 2.39969015403716 122.75453590059897 -137.9207387535629 1.9725 0 0 0      
292 3 -1.20015527937199 120.78233787030456 -137.95525221909304 1.9725 0 0 0      
293 3 -1.20015527937199 122.78904936612912 -139.89293678385727 1.9725 0 0 0      
294 3 -1.20015527937199 122.75453590059897 -137.9207387535629 0.0 0 0 0      
295 1 1.19958649207443 124.76124739642351 -139.85842331832714 0.0 0 0 0      
296 2 2.39969015403716 126.69893196118778 -137.8517118225026 1.9725 0 0 0      
297 3 -1.20015527937199 124.72673393089336 -137.88622528803276 1.9725 0 0 0      
298 3 -1.20015527937199 126.73344542671794 -139.823909852797 1.9725 0 0 0      
299 3 -1.20015527937199 126.69893196118778 -137.8517118225026 0.0 0 0 0      
300 1 1.19958649207443 128.70564345701234 -139.78939638726683 0.0 0 0 0      
301 2 2.39969015403716 130.6433280217766 -137.7826848914423 1.9725 0 0 0      
302 3 -1.20015527937199 128.6711299914822 -137.81719835697243 1.9725 0 0 0      
303 3 -1.20015527937199 130.67784148730675 -139.75488292173668 1.9725 0 0 0      
304 3 -1.20015527937199 130.6433280217766 -137.7826848914423 0.0 0 0 0      
305 1 1.19958649207443 132.65003951760116 -139.72036945620653 0.0 0 0 0      
306 2 2.39969015403716 134.5877240823654 -137.713657960382 1.9725 0 0 0      
307 3 -1.20015527937199 132.615526052071 -137.74817142591215 1.9725 0 0 0      
308 3 -1.20015527937199 134.62223754789557 -139.68585599067637 1.9725 0 0 0      
309 3 -1.20015527937199 134.5877240823654 -137.713657960382 0.0 0 0 0      
310 1 1.19958649207443 136.59443557818992 -139.65134252514622 0.0 0 0 0      
311 2 2.39969015403716 138.53212014295417 -137.6446310293217 1.9725 0 0 0      
312 3 -1.20015527937199 136.55992211265976 -137.67914449485184 1.9725 0 0 0      
313 3 -1.20015527937199 138.56663360848432 -139.61682905961607 1.9725 0 0 0      
314 3 -1.20015527937199 138.53212014295417 -137.6446310293217 0.0 0 0 0      
315 1 1.19958649207443 140.53883163877867 -139.5823155940859 0.0 0 0 0      
316 2 2.39969015403716 142.47651620354293 -137.57560409826138 1.9725 0 0 0      
317 3 -1.20015527937199 140.50431817324852 -137.61011756379153 1.9725 0 0 0      
318 3 -1.20015527937199 142.51102966907308 -139.54780212855576 1.9725 0 0 0      
319 3 -1.20015527937199 142.47651620354293 -137.57560409826138 0.0 0 0 0      
320 1 1.19958649207443 144.4832276993675 -139.5132886630256 0.0 0 0 0      
321 2 2.39969015403716 146.42091226413174 -137.50657716720107 1.9725 0 0 0      
322 3 -1.20015527937199 144.44871423383734 -137.54109063273123 1.9725 0 0 0      
323 3 -1.20015527937199 146.4554257296619 -139.47877519749545 1.9725 0 0 0      
324 3 -1.20015527937199 146.42091226413174 -137.50657716720107 0.0 0 0 0      
325 1 1.19958649207443 148.4276237599563 -139.4442617319653 0.0 0 0 0      
326 2 2.39969015403716 150.36530832472056 -137.43755023614077 1.9725 0 0 0      
327 3 -1.20015527937199 148.39311029442615 -137.47206370167092 1.9725 0 0 0      
328 3 -1.20015527937199 150.3998217902507 -139.40974826643514 1.9725 0 0 0      
329 3 -1.20015527937199 150.36530832472056 -137.43755023614077 0.0 0 0 0      
330 1 1.19958649207443 152.37201982054512 -139.375234800905 0.0 0 0 0      
331 2 2.39969015403716 154.30970438530937 -137.36852330508046 1.9725 0 0 0      
332 3 -1.20015527937199 152.33750635501497 -137.4030367706106 1.9725 0 0 0      
333 3 -1.20015527937199 154.34421785083953 -139.34072133537484 1.9725 0 0 0      
334 3 -1.20015527937199 154.30970438530937 -137.36852330508046 0.0 0 0 0      
335 1 1.19958649207443 156.31641588113388 -139.30620786984468 0.0 0 0 0      
336 2 2.39969015403716 158.25410044589813 -137.29949637402015 1.9725 0 0 0      
337 3 -1.20015527937199 156.28190241560372 -137.3340098395503 1.9725 0 0 0      
338 3 -1.20015527937199 158.28861391142829 -139.27169440431453 1.9725 0 0 0      
339 3 -1.20015527937199 158.25410044589813 -137.29949637402015 0.0 0 0 0      
340 1 1.19958649207443 160.26081194172264 -139.2371809387844 0.0 0 0 0      
341 2 2.39969015403716 162.1984965064869 -137.23046944295987 1.9725 0 0 0      
342 3 -1.20015527937199 160.22629847619248 -137.26498290849003 1.9725 0 0 0      
343 3 -1.20015527937199 162.23300997201704 -139.20266747325425 1.9725 0 0 0      
344 3 -1.20015527937199 162.1984965064869 -137.23046944295987 0.0 0 0 0      
345 1 1.19958649207443 164.20520800231145 -139.1681540077241 0.0 0 0 0      
346 2 2.39969015403716 166.1428925670757 -137.16144251189957 1.9725 0 0 0      
347 3 -1.20015527937199 164.1706945367813 -137.19595597742972 1.9725 0 0 0      
348 3 -1.20015527937199 166.17740603260586 -139.13364054219394 1.9725 0 0 0      
349 3 -1.20015527937199 166.1428925670757 -137.16144251189957 0.0 0 0 0      
350 1 1.19958649207443 168.14960406290027 -139.0991270766638 0.0 0 0 0      
351 2 2.39969015403716 170.08728862766452 -137.09241558083926 1.9725 0 0 0      
352 3 -1.20015527937199 168.1150905973701 -137.1269290463694 1.9725 0 0 0      
353 3 -1.20015527937199 170.12180209319467 -139.06461361113364 1.9725 0 0 0      
354 3 -1.20015527937199 170.08728862766452 -137.09241558083926 0.0 0 0 0      
355 1 1.19958649207443 172.09400012348908 -139.03010014560348 0.0 0 0 0      
356 2 2.39969015403716 174.03168468825334 -137.02338864977895 1.9725 0 0 0      
357 3 -1.20015527937199 172.05948665795893 -137.0579021153091 1.9725 0 0 0      
358 3 -1.20015527937199 174.0661981537835 -138.99558668007333 1.9725 0 0 0      
359 3 -1.20015527937199 174.03168468825334 -137.02338864977895 0.0 0 0 0      
360 1 1.19958649207443 176.03839618407784 -138.96107321454318 0.0 0 0 0      
361 2 2.39969015403716 177.9760807488421 -136.95436171871864 1.9725 0 0 0      
362 3 -1.20015527937199 176.0038827185477 -136.9888751842488 1.9725 0 0 0      
363 3 -1.20015527937199 178.01059421437225 -138.92655974901302 1.9725 0 0 0      
364 3 -1.20015527937199 177.9760807488421 -136.95436171871864 0.0 0 0 0      
365 1 1.19958649207443 179.98279224466663 -138.89204628348287 0.0 0 0 0      
366 2 2.39969015403716 181.9204768094309 -136.88533478765834 1.9725 0 0 0      
367 3 -1.20015527937199 179.9482787791365 -136.9198482531885 1.9725 0 0 0      
368 3 -1.20015527937199 181.95499027496103 -138.85753281795272 1.9725 0 0 0      
369 3 -1.20015527937199 181.9204768094309 -136.88533478765834 0.0 0 0 0      
370 1 1.19958649207443 183.9271883052554 -138.82301935242256 0.0 0 0 0      
371 2 2.39969015403716 185.86487287001967 -136.81630785659803 1.9725 0 0 0      
372 3 -1.20015527937199 183.8926748397253 -136.85082132212818 1.9725 0 0 0      