LAMMPS data file via write_data, version 19 Nov 2024, timestep = 0, units =.1 metal
              
45316 atoms             
3 atom types            
              
0 380.032724906685 xlo xhi           
-47.5040906133356 47.5040906133356 ylo yhi           
0 15.78 zlo zhi           
              
Masses              
              
1 87.62             
2 47.867             
3 15.999             
              
Atoms # charge            
              
1 3 -1.20004874334262 379.59388538583823 46.622761436159536 13.8075 0 0 0      
2 1 1.19987027027027 379.5593719203081 44.65056340586514 11.834999999999996 0 0 0      
3 3 -1.20004874334262 377.6216873555439 46.65727490168969 11.834999999999996 0 0 0      
4 3 -1.20004874334262 377.5871738900137 44.68507687139529 13.8075 0 0 0      
5 3 -1.20004874334262 375.6494893252495 46.69178836721984 13.8075 0 0 0      
6 2 2.39990287801315 377.6216873555439 46.65727490168969 13.8075 0 0 0      
7 1 1.19987027027027 375.6149758597193 44.71959033692544 11.834999999999996 0 0 0      
8 3 -1.20004874334262 373.6772912949551 46.72630183275 11.834999999999996 0 0 0      
9 3 -1.20004874334262 373.6427778294249 44.7541038024556 13.8075 0 0 0      
10 3 -1.20004874334262 371.7050932646607 46.76081529828015 13.8075 0 0 0      
11 2 2.39990287801315 373.6772912949551 46.72630183275 13.8075 0 0 0      
12 2 2.39990287801315 346.06651887083353 -47.209490350172125 1.9725 0 0 0      
13 3 -1.20004874334262 344.0943208405391 -47.24400381570227 1.9725 0 0 0      
14 3 -1.20004874334262 346.06651887083353 -47.209490350172125 0.0 0 0 0      
15 2 2.39990287801315 350.0109149314223 -47.14046341911182 1.9725 0 0 0      
16 3 -1.20004874334262 348.0387169011279 -47.17497688464197 1.9725 0 0 0      
17 3 -1.20004874334262 350.0109149314223 -47.14046341911182 0.0 0 0 0      
18 2 2.39990287801315 353.9553109920111 -47.07143648805152 1.9725 0 0 0      
19 3 -1.20004874334262 351.9831129617167 -47.105949953581664 1.9725 0 0 0      
20 3 -1.20004874334262 353.9553109920111 -47.07143648805152 0.0 0 0 0      
21 2 2.39990287801315 357.89970705259987 -47.00240955699121 1.9725 0 0 0      
22 3 -1.20004874334262 355.9275090223055 -47.03692302252136 1.9725 0 0 0      
23 3 -1.20004874334262 357.89970705259987 -47.00240955699121 0.0 0 0 0      
24 2 2.39990287801315 361.8441031131887 -46.9333826259309 1.9725 0 0 0      
25 3 -1.20004874334262 359.8719050828944 -46.96789609146106 1.9725 0 0 0      
26 3 -1.20004874334262 361.8441031131887 -46.9333826259309 0.0 0 0 0      
27 2 2.39990287801315 365.78849917377744 -46.8643556948706 1.9725 0 0 0      
28 3 -1.20004874334262 363.8163011434831 -46.89886916040076 1.9725 0 0 0      
29 3 -1.20004874334262 365.78849917377744 -46.8643556948706 0.0 0 0 0      
30 2 2.39990287801315 369.7328952343663 -46.7953287638103 1.9725 0 0 0      
31 3 -1.20004874334262 367.7606972040719 -46.82984222934045 1.9725 0 0 0      
32 3 -1.20004874334262 369.7328952343663 -46.7953287638103 0.0 0 0 0      
33 2 2.39990287801315 373.6772912949551 -46.72630183275 1.9725 0 0 0      
34 3 -1.20004874334262 371.7050932646607 -46.76081529828015 1.9725 0 0 0      
35 3 -1.20004874334262 373.6772912949551 -46.72630183275 0.0 0 0 0      
36 2 2.39990287801315 377.6216873555439 -46.65727490168969 1.9725 0 0 0      
37 3 -1.20004874334262 375.6494893252495 -46.69178836721984 1.9725 0 0 0      
38 3 -1.20004874334262 377.6216873555439 -46.65727490168969 0.0 0 0 0      
39 3 -1.20004874334262 379.59388538583823 -46.622761436159536 1.9725 0 0 0      
40 1 1.19987027027027 371.6705797991305 44.78861726798575 11.834999999999996 0 0 0      
41 3 -1.20004874334262 369.7328952343663 46.7953287638103 11.834999999999996 0 0 0      
42 3 -1.20004874334262 369.6983817688361 44.823130733515896 13.8075 0 0 0      
43 3 -1.20004874334262 367.7606972040719 46.82984222934045 13.8075 0 0 0      
44 2 2.39990287801315 369.7328952343663 46.7953287638103 13.8075 0 0 0      
45 1 1.19987027027027 367.72618373854175 44.85764419904605 11.834999999999996 0 0 0      
46 3 -1.20004874334262 365.78849917377744 46.8643556948706 11.834999999999996 0 0 0      
47 3 -1.20004874334262 365.7539857082473 44.8921576645762 13.8075 0 0 0      
48 3 -1.20004874334262 363.8163011434831 46.89886916040076 13.8075 0 0 0      
49 2 2.39990287801315 365.78849917377744 46.8643556948706 13.8075 0 0 0      
50 1 1.19987027027027 363.7817876779529 44.92667113010636 11.834999999999996 0 0 0      
51 2 2.39990287801315 121.16691648621202 -47.19962936002065 1.9725 0 0 0      
52 3 -1.20004874334262 119.1947184559176 -47.234142825550805 1.9725 0 0 0      
53 3 -1.20004874334262 121.16691648621202 -47.19962936002065 0.0 0 0 0      
54 2 2.39990287801315 125.11131254680085 -47.13060242896034 1.9725 0 0 0      
55 3 -1.20004874334262 123.13911451650642 -47.1651158944905 1.9725 0 0 0      
56 3 -1.20004874334262 125.11131254680085 -47.13060242896034 0.0 0 0 0      
57 2 2.39990287801315 129.05570860738965 -47.06157549790005 1.9725 0 0 0      
58 3 -1.20004874334262 127.08351057709513 -47.09608896343019 1.9725 0 0 0      
59 3 -1.20004874334262 129.05570860738965 -47.06157549790005 0.0 0 0 0      
60 2 2.39990287801315 133.00010466797846 -46.99254856683974 1.9725 0 0 0      
61 3 -1.20004874334262 131.02790663768394 -47.02706203236989 1.9725 0 0 0      
62 3 -1.20004874334262 133.00010466797846 -46.99254856683974 0.0 0 0 0      
63 2 2.39990287801315 136.94450072856716 -46.92352163577944 1.9725 0 0 0      
64 3 -1.20004874334262 134.97230269827276 -46.958035101309584 1.9725 0 0 0      
65 3 -1.20004874334262 136.94450072856716 -46.92352163577944 0.0 0 0 0      
66 2 2.39990287801315 140.88889678915598 -46.85449470471913 1.9725 0 0 0      
67 3 -1.20004874334262 138.91669875886157 -46.88900817024928 1.9725 0 0 0      
68 3 -1.20004874334262 140.88889678915598 -46.85449470471913 0.0 0 0 0      
69 2 2.39990287801315 144.8332928497448 -46.78546777365882 1.9725 0 0 0      
70 3 -1.20004874334262 142.8610948194504 -46.81998123918898 1.9725 0 0 0      
71 3 -1.20004874334262 144.8332928497448 -46.78546777365882 0.0 0 0 0      
72 2 2.39990287801315 148.7776889103336 -46.71644084259852 1.9725 0 0 0      
73 3 -1.20004874334262 146.8054908800392 -46.75095430812868 1.9725 0 0 0      
74 3 -1.20004874334262 148.7776889103336 -46.71644084259852 0.0 0 0 0      
75 2 2.39990287801315 152.7220849709223 -46.647413911538216 1.9725 0 0 0      
76 3 -1.20004874334262 150.74988694062802 -46.68192737706837 1.9725 0 0 0      
77 3 -1.20004874334262 152.7220849709223 -46.647413911538216 0.0 0 0 0      
78 2 2.39990287801315 156.66648103151113 -46.57838698047792 1.9725 0 0 0      
79 3 -1.20004874334262 154.69428300121672 -46.61290044600807 1.9725 0 0 0      
80 3 -1.20004874334262 156.66648103151113 -46.57838698047792 0.0 0 0 0      
81 2 2.39990287801315 160.61087709209994 -46.50936004941761 1.9725 0 0 0      
82 3 -1.20004874334262 158.63867906180553 -46.54387351494776 1.9725 0 0 0      
83 3 -1.20004874334262 160.61087709209994 -46.50936004941761 0.0 0 0 0      
84 2 2.39990287801315 164.55527315268876 -46.44033311835731 1.9725 0 0 0      
85 3 -1.20004874334262 162.58307512239435 -46.47484658388746 1.9725 0 0 0      
86 3 -1.20004874334262 164.55527315268876 -46.44033311835731 0.0 0 0 0      
87 2 2.39990287801315 168.49966921327757 -46.371306187297 1.9725 0 0 0      
88 3 -1.20004874334262 166.52747118298316 -46.40581965282716 1.9725 0 0 0      
89 3 -1.20004874334262 168.49966921327757 -46.371306187297 0.0 0 0 0      
90 2 2.39990287801315 172.4440652738664 -46.3022792562367 1.9725 0 0 0      
91 3 -1.20004874334262 170.47186724357186 -46.336792721766855 1.9725 0 0 0      
92 3 -1.20004874334262 172.4440652738664 -46.3022792562367 0.0 0 0 0      
93 2 2.39990287801315 176.3884613344551 -46.2332523251764 1.9725 0 0 0      
94 3 -1.20004874334262 174.41626330416068 -46.26776579070655 1.9725 0 0 0      
95 3 -1.20004874334262 176.3884613344551 -46.2332523251764 0.0 0 0 0      
96 2 2.39990287801315 180.3328573950439 -46.164225394116094 1.9725 0 0 0      
97 3 -1.20004874334262 178.3606593647495 -46.19873885964624 1.9725 0 0 0      
98 3 -1.20004874334262 180.3328573950439 -46.164225394116094 0.0 0 0 0      
99 2 2.39990287801315 184.27725345563272 -46.09519846305579 1.9725 0 0 0      
100 3 -1.20004874334262 182.3050554253383 -46.12971192858594 1.9725 0 0 0      
101 3 -1.20004874334262 184.27725345563272 -46.09519846305579 0.0 0 0 0      
102 2 2.39990287801315 188.22164951622156 -46.02617153199549 1.9725 0 0 0      
103 3 -1.20004874334262 186.24945148592712 -46.060684997525634 1.9725 0 0 0      
104 3 -1.20004874334262 188.22164951622156 -46.02617153199549 0.0 0 0 0      
105 2 2.39990287801315 192.16604557681023 -45.95714460093518 1.9725 0 0 0      
106 3 -1.20004874334262 190.19384754651597 -45.99165806646533 1.9725 0 0 0      
107 3 -1.20004874334262 192.16604557681023 -45.95714460093518 0.0 0 0 0      
108 2 2.39990287801315 196.11044163739905 -45.88811766987487 1.9725 0 0 0      
109 3 -1.20004874334262 194.13824360710464 -45.92263113540503 1.9725 0 0 0      
110 3 -1.20004874334262 196.11044163739905 -45.88811766987487 0.0 0 0 0      
111 2 2.39990287801315 200.05483769798784 -45.81909073881457 1.9725 0 0 0      
112 3 -1.20004874334262 198.08263966769343 -45.85360420434473 1.9725 0 0 0      
113 3 -1.20004874334262 200.05483769798784 -45.81909073881457 0.0 0 0 0      
114 2 2.39990287801315 203.99923375857668 -45.750063807754266 1.9725 0 0 0      
115 3 -1.20004874334262 202.02703572828227 -45.78457727328442 1.9725 0 0 0      
116 3 -1.20004874334262 203.99923375857668 -45.750063807754266 0.0 0 0 0      
117 2 2.39990287801315 207.9436298191655 -45.681036876693966 1.9725 0 0 0      
118 3 -1.20004874334262 205.9714317888711 -45.71555034222412 1.9725 0 0 0      
119 3 -1.20004874334262 207.9436298191655 -45.681036876693966 0.0 0 0 0      
120 2 2.39990287801315 211.8880258797543 -45.61200994563366 1.9725 0 0 0      
121 3 -1.20004874334262 209.9158278494598 -45.64652341116381 1.9725 0 0 0      
122 3 -1.20004874334262 211.8880258797543 -45.61200994563366 0.0 0 0 0      
123 2 2.39990287801315 215.83242194034312 -45.54298301457336 1.9725 0 0 0      
124 3 -1.20004874334262 213.8602239100486 -45.57749648010351 1.9725 0 0 0      
125 3 -1.20004874334262 215.83242194034312 -45.54298301457336 0.0 0 0 0      
126 3 -1.20004874334262 361.8441031131887 46.9333826259309 11.834999999999996 0 0 0      
127 2 2.39990287801315 219.77681800093185 -45.47395608351305 1.9725 0 0 0      
128 3 -1.20004874334262 217.80461997063745 -45.508469549043205 1.9725 0 0 0      
129 3 -1.20004874334262 361.8095896476585 44.96118459563651 13.8075 0 0 0      
130 3 -1.20004874334262 219.77681800093185 -45.47395608351305 0.0 0 0 0      
131 3 -1.20004874334262 359.8719050828944 46.96789609146106 13.8075 0 0 0      
132 2 2.39990287801315 223.72121406152064 -45.40492915245275 1.9725 0 0 0      
133 3 -1.20004874334262 221.74901603122623 -45.4394426179829 1.9725 0 0 0      
134 2 2.39990287801315 361.8441031131887 46.9333826259309 13.8075 0 0 0      
135 3 -1.20004874334262 223.72121406152064 -45.40492915245275 0.0 0 0 0      
136 1 1.19987027027027 359.8373916173642 44.99569806116666 11.834999999999996 0 0 0      
137 2 2.39990287801315 227.66561012210943 -45.335902221392445 1.9725 0 0 0      
138 3 -1.20004874334262 225.69341209181505 -45.3704156869226 1.9725 0 0 0      
139 3 -1.20004874334262 357.89970705259987 47.00240955699121 11.834999999999996 0 0 0      
140 3 -1.20004874334262 227.66561012210943 -45.335902221392445 0.0 0 0 0      
141 3 -1.20004874334262 357.8651935870697 45.03021152669681 13.8075 0 0 0      
142 2 2.39990287801315 231.61000618269827 -45.26687529033214 1.9725 0 0 0      
143 3 -1.20004874334262 229.63780815240384 -45.30138875586229 1.9725 0 0 0      
144 3 -1.20004874334262 231.6445196482284 -47.23907332062653 1.9725 0 0 0      
145 3 -1.20004874334262 231.61000618269827 -45.26687529033214 0.0 0 0 0      
146 1 1.19987027027027 233.61671767852283 -47.20455985509639 0.0 0 0 0      
147 2 2.39990287801315 235.55440224328697 -45.19784835927184 1.9725 0 0 0      
148 3 -1.20004874334262 233.58220421299268 -45.23236182480199 1.9725 0 0 0      
149 3 -1.20004874334262 235.58891570881715 -47.17004638956623 1.9725 0 0 0      
150 3 -1.20004874334262 235.55440224328697 -45.19784835927184 0.0 0 0 0      
151 1 1.19987027027027 237.56111373911156 -47.13553292403608 0.0 0 0 0      
152 2 2.39990287801315 239.4987983038758 -45.12882142821154 1.9725 0 0 0      
153 3 -1.20004874334262 237.52660027358135 -45.16333489374168 1.9725 0 0 0      
154 3 -1.20004874334262 239.53331176940597 -47.10101945850593 1.9725 0 0 0      
155 3 -1.20004874334262 239.4987983038758 -45.12882142821154 0.0 0 0 0      
156 1 1.19987027027027 241.50550979970035 -47.06650599297578 0.0 0 0 0      
157 2 2.39990287801315 243.4431943644646 -45.05979449715123 1.9725 0 0 0      
158 3 -1.20004874334262 241.4709963341702 -45.09430796268138 1.9725 0 0 0      
159 3 -1.20004874334262 243.4777078299948 -47.03199252744562 1.9725 0 0 0      
160 3 -1.20004874334262 243.4431943644646 -45.05979449715123 0.0 0 0 0      
161 1 1.19987027027027 245.4499058602892 -46.99747906191547 0.0 0 0 0      
162 2 2.39990287801315 247.38759042505345 -44.99076756609092 1.9725 0 0 0      
163 3 -1.20004874334262 245.415392394759 -45.02528103162108 1.9725 0 0 0      
164 3 -1.20004874334262 247.4221038905836 -46.96296559638532 1.9725 0 0 0      
165 3 -1.20004874334262 247.38759042505345 -44.99076756609092 0.0 0 0 0      
166 1 1.19987027027027 249.394301920878 -46.92845213085516 0.0 0 0 0      
167 2 2.39990287801315 251.33198648564223 -44.92174063503062 1.9725 0 0 0      
168 3 -1.20004874334262 249.35978845534785 -44.95625410056077 1.9725 0 0 0      
169 3 -1.20004874334262 251.3664999511724 -46.89393866532502 1.9725 0 0 0      
170 3 -1.20004874334262 251.33198648564223 -44.92174063503062 0.0 0 0 0      
171 1 1.19987027027027 253.33869798146677 -46.85942519979486 0.0 0 0 0      
172 2 2.39990287801315 255.276382546231 -44.85271370397032 1.9725 0 0 0      
173 3 -1.20004874334262 253.30418451593656 -44.88722716950047 1.9725 0 0 0      
174 3 -1.20004874334262 255.31089601176117 -46.82491173426471 1.9725 0 0 0      
175 3 -1.20004874334262 255.276382546231 -44.85271370397032 0.0 0 0 0      
176 1 1.19987027027027 257.28309404205555 -46.79039826873456 0.0 0 0 0      
177 2 2.39990287801315 259.2207786068197 -44.783686772910016 1.9725 0 0 0      
178 3 -1.20004874334262 257.2485805765254 -44.81820023844016 1.9725 0 0 0      
179 3 -1.20004874334262 259.2552920723499 -46.75588480320441 1.9725 0 0 0      
180 3 -1.20004874334262 259.2207786068197 -44.783686772910016 0.0 0 0 0      
181 1 1.19987027027027 261.2274901026443 -46.721371337674256 0.0 0 0 0      
182 2 2.39990287801315 263.1651746674085 -44.71465984184971 1.9725 0 0 0      
183 3 -1.20004874334262 261.19297663711416 -44.74917330737986 1.9725 0 0 0      
184 3 -1.20004874334262 263.19968813293866 -46.6868578721441 1.9725 0 0 0      
185 3 -1.20004874334262 263.1651746674085 -44.71465984184971 0.0 0 0 0      
186 1 1.19987027027027 265.1718861632331 -46.65234440661395 0.0 0 0 0      
187 2 2.39990287801315 267.1095707279973 -44.64563291078941 1.9725 0 0 0      
188 3 -1.20004874334262 265.137372697703 -44.68014637631956 1.9725 0 0 0      
189 3 -1.20004874334262 267.1440841935275 -46.6178309410838 1.9725 0 0 0      
190 3 -1.20004874334262 267.1095707279973 -44.64563291078941 0.0 0 0 0      
191 1 1.19987027027027 269.1162822238219 -46.58331747555365 0.0 0 0 0      
192 2 2.39990287801315 271.05396678858614 -44.5766059797291 1.9725 0 0 0      
193 3 -1.20004874334262 269.08176875829173 -44.611119445259256 1.9725 0 0 0      
194 3 -1.20004874334262 271.0884802541163 -46.548804010023495 1.9725 0 0 0      
195 3 -1.20004874334262 271.05396678858614 -44.5766059797291 0.0 0 0 0      
196 1 1.19987027027027 273.0606782844107 -46.51429054449334 0.0 0 0 0      
197 2 2.39990287801315 274.9983628491749 -44.5075790486688 1.9725 0 0 0      
198 3 -1.20004874334262 273.02616481888055 -44.54209251419895 1.9725 0 0 0      
199 3 -1.20004874334262 275.0328763147051 -46.4797770789632 1.9725 0 0 0      
200 3 -1.20004874334262 274.9983628491749 -44.5075790486688 0.0 0 0 0      
201 1 1.19987027027027 277.00507434499946 -46.44526361343304 0.0 0 0 0      
202 2 2.39990287801315 278.9427589097637 -44.438552117608495 1.9725 0 0 0      
203 3 -1.20004874334262 276.9705608794693 -44.47306558313865 1.9725 0 0 0      
204 3 -1.20004874334262 278.97727237529386 -46.41075014790289 1.9725 0 0 0      
205 3 -1.20004874334262 278.9427589097637 -44.438552117608495 0.0 0 0 0      
206 1 1.19987027027027 280.9494704055883 -46.376236682372735 0.0 0 0 0      
207 2 2.39990287801315 282.8871549703525 -44.36952518654819 1.9725 0 0 0      
208 3 -1.20004874334262 280.9149569400581 -44.40403865207834 1.9725 0 0 0      
209 3 -1.20004874334262 282.9216684358827 -46.34172321684258 1.9725 0 0 0      
210 3 -1.20004874334262 282.8871549703525 -44.36952518654819 0.0 0 0 0      
211 1 1.19987027027027 284.89386646617703 -46.30720975131244 0.0 0 0 0      
212 2 2.39990287801315 286.8315510309413 -44.30049825548789 1.9725 0 0 0      
213 3 -1.20004874334262 284.8593530006469 -44.33501172101804 1.9725 0 0 0      
214 3 -1.20004874334262 286.86606449647144 -46.27269628578228 1.9725 0 0 0      
215 3 -1.20004874334262 286.8315510309413 -44.30049825548789 0.0 0 0 0      
216 1 1.19987027027027 288.8382625267659 -46.23818282025213 0.0 0 0 0      
217 2 2.39990287801315 290.7759470915301 -44.23147132442758 1.9725 0 0 0      
218 3 -1.20004874334262 288.8037490612357 -44.26598478995773 1.9725 0 0 0      
219 3 -1.20004874334262 290.81046055706025 -46.20366935472197 1.9725 0 0 0      
220 3 -1.20004874334262 290.7759470915301 -44.23147132442758 0.0 0 0 0      
221 1 1.19987027027027 292.78265858735466 -46.16915588919183 0.0 0 0 0      
222 2 2.39990287801315 294.72034315211886 -44.16244439336728 1.9725 0 0 0      
223 3 -1.20004874334262 292.7481451218245 -44.19695785889744 1.9725 0 0 0      
224 3 -1.20004874334262 294.754856617649 -46.13464242366168 1.9725 0 0 0      
225 3 -1.20004874334262 294.72034315211886 -44.16244439336728 0.0 0 0 0      
226 1 1.19987027027027 296.7270546479435 -46.10012895813152 0.0 0 0 0      
227 2 2.39990287801315 298.6647392127077 -44.093417462306974 1.9725 0 0 0      
228 3 -1.20004874334262 296.6925411824133 -44.12793092783713 1.9725 0 0 0      
229 3 -1.20004874334262 298.6992526782378 -46.06561549260137 1.9725 0 0 0      
230 3 -1.20004874334262 298.6647392127077 -44.093417462306974 0.0 0 0 0      
231 1 1.19987027027027 300.67145070853223 -46.03110202707121 0.0 0 0 0      
232 2 2.39990287801315 302.60913527329643 -44.024390531246674 1.9725 0 0 0      
233 3 -1.20004874334262 300.6369372430021 -44.05890399677682 1.9725 0 0 0      
234 3 -1.20004874334262 302.6436487388266 -45.99658856154107 1.9725 0 0 0      
235 3 -1.20004874334262 302.60913527329643 -44.024390531246674 0.0 0 0 0      
236 1 1.19987027027027 304.61584676912105 -45.96207509601091 0.0 0 0 0      
237 2 2.39990287801315 306.5535313338853 -43.95536360018637 1.9725 0 0 0      
238 3 -1.20004874334262 304.5813333035909 -43.98987706571652 1.9725 0 0 0      
239 3 -1.20004874334262 306.58804479941546 -45.92756163048076 1.9725 0 0 0      
240 3 -1.20004874334262 306.5535313338853 -43.95536360018637 0.0 0 0 0      
241 1 1.19987027027027 308.5602428297098 -45.893048164950606 0.0 0 0 0      
242 2 2.39990287801315 310.49792739447406 -43.88633666912607 1.9725 0 0 0      
243 3 -1.20004874334262 308.52572936417965 -43.92085013465621 1.9725 0 0 0      
244 3 -1.20004874334262 310.5324408600042 -45.85853469942046 1.9725 0 0 0      
245 3 -1.20004874334262 310.49792739447406 -43.88633666912607 0.0 0 0 0      
246 1 1.19987027027027 312.5046388902986 -45.82402123389031 0.0 0 0 0      
247 2 2.39990287801315 314.4423234550629 -43.81730973806576 1.9725 0 0 0      
248 3 -1.20004874334262 312.47012542476847 -43.85182320359591 1.9725 0 0 0      
249 3 -1.20004874334262 314.47683692059303 -45.78950776836015 1.9725 0 0 0      
250 3 -1.20004874334262 314.4423234550629 -43.81730973806576 0.0 0 0 0      
251 1 1.19987027027027 316.4490349508874 -45.75499430283 0.0 0 0 0      
252 2 2.39990287801315 318.38671951565163 -43.74828280700545 1.9725 0 0 0      
253 3 -1.20004874334262 316.4145214853572 -43.782796272535606 1.9725 0 0 0      
254 3 -1.20004874334262 318.4212329811818 -45.720480837299846 1.9725 0 0 0      
255 3 -1.20004874334262 318.38671951565163 -43.74828280700545 0.0 0 0 0      
256 1 1.19987027027027 320.3934310114762 -45.6859673717697 0.0 0 0 0      
257 2 2.39990287801315 322.33111557624045 -43.67925587594515 1.9725 0 0 0      
258 3 -1.20004874334262 320.35891754594604 -43.713769341475306 1.9725 0 0 0      
259 3 -1.20004874334262 322.3656290417706 -45.651453906239546 1.9725 0 0 0      
260 3 -1.20004874334262 322.33111557624045 -43.67925587594515 0.0 0 0 0      
261 1 1.19987027027027 324.337827072065 -45.61694044070939 0.0 0 0 0      
262 2 2.39990287801315 326.2755116368292 -43.610228944884845 1.9725 0 0 0      
263 3 -1.20004874334262 324.30331360653486 -43.644742410415 1.9725 0 0 0      
264 3 -1.20004874334262 326.31002510235936 -45.58242697517924 1.9725 0 0 0      
265 3 -1.20004874334262 326.2755116368292 -43.610228944884845 0.0 0 0 0      
266 1 1.19987027027027 328.2822231326538 -45.54791350964909 0.0 0 0 0      
267 2 2.39990287801315 330.219907697418 -43.54120201382455 1.9725 0 0 0      
268 3 -1.20004874334262 328.2477096671237 -43.5757154793547 1.9725 0 0 0      
269 3 -1.20004874334262 330.2544211629482 -45.51340004411894 1.9725 0 0 0      
270 3 -1.20004874334262 330.219907697418 -43.54120201382455 0.0 0 0 0      
271 1 1.19987027027027 332.2266191932426 -45.47888657858879 0.0 0 0 0      
272 2 2.39990287801315 334.1643037580068 -43.47217508276424 1.9725 0 0 0      
273 3 -1.20004874334262 332.19210572771243 -43.50668854829439 1.9725 0 0 0      
274 3 -1.20004874334262 334.19881722353693 -45.44437311305863 1.9725 0 0 0      
275 3 -1.20004874334262 334.1643037580068 -43.47217508276424 0.0 0 0 0      
276 1 1.19987027027027 336.1710152538314 -45.40985964752848 0.0 0 0 0      
277 2 2.39990287801315 338.10869981859565 -43.40314815170394 1.9725 0 0 0      
278 3 -1.20004874334262 336.13650178830125 -43.437661617234085 1.9725 0 0 0      
279 3 -1.20004874334262 338.1432132841258 -45.37534618199833 1.9725 0 0 0      
280 3 -1.20004874334262 338.10869981859565 -43.40314815170394 0.0 0 0 0      
281 1 1.19987027027027 340.11541131442016 -45.34083271646818 0.0 0 0 0      
282 2 2.39990287801315 342.0530958791844 -43.33412122064363 1.9725 0 0 0      
283 3 -1.20004874334262 340.08089784889 -43.368634686173785 1.9725 0 0 0      
284 3 -1.20004874334262 342.08760934471456 -45.30631925093802 1.9725 0 0 0      
285 3 -1.20004874334262 342.0530958791844 -43.33412122064363 0.0 0 0 0      
286 1 1.19987027027027 344.059807375009 -45.27180578540788 0.0 0 0 0      
287 2 2.39990287801315 345.9974919397732 -43.26509428958333 1.9725 0 0 0      
288 3 -1.20004874334262 344.0252939094788 -43.299607755113485 1.9725 0 0 0      
289 3 -1.20004874334262 346.0320054053034 -45.23729231987773 1.9725 0 0 0      
290 3 -1.20004874334262 345.9974919397732 -43.26509428958333 0.0 0 0 0      
291 1 1.19987027027027 348.00420343559773 -45.20277885434757 0.0 0 0 0      
292 2 2.39990287801315 349.941888000362 -43.196067358523024 1.9725 0 0 0      
293 3 -1.20004874334262 347.9696899700676 -43.23058082405318 1.9725 0 0 0      
294 3 -1.20004874334262 349.97640146589214 -45.16826538881742 1.9725 0 0 0      
295 3 -1.20004874334262 349.941888000362 -43.196067358523024 0.0 0 0 0      
296 1 1.19987027027027 351.94859949618655 -45.133751923287264 0.0 0 0 0      
297 2 2.39990287801315 353.8862840609508 -43.12704042746272 1.9725 0 0 0      
298 3 -1.20004874334262 351.9140860306564 -43.16155389299287 1.9725 0 0 0      
299 3 -1.20004874334262 353.9207975264809 -45.09923845775712 1.9725 0 0 0      
300 3 -1.20004874334262 353.8862840609508 -43.12704042746272 0.0 0 0 0      
301 1 1.19987027027027 355.89299555677536 -45.06472499222696 0.0 0 0 0      
302 2 2.39990287801315 357.8306801215396 -43.05801349640242 1.9725 0 0 0      
303 3 -1.20004874334262 355.8584820912452 -43.09252696193257 1.9725 0 0 0      
304 3 -1.20004874334262 357.8651935870697 -45.03021152669681 1.9725 0 0 0      
305 3 -1.20004874334262 357.8306801215396 -43.05801349640242 0.0 0 0 0      
306 1 1.19987027027027 359.8373916173642 -44.99569806116666 0.0 0 0 0      
307 2 2.39990287801315 361.7750761821284 -42.98898656534212 1.9725 0 0 0      
308 3 -1.20004874334262 359.802878151834 -43.02350003087226 1.9725 0 0 0      
309 3 -1.20004874334262 361.8095896476585 -44.96118459563651 1.9725 0 0 0      
310 3 -1.20004874334262 361.7750761821284 -42.98898656534212 0.0 0 0 0      
311 1 1.19987027027027 363.7817876779529 -44.92667113010636 0.0 0 0 0      
312 2 2.39990287801315 365.71947224271713 -42.91995963428181 1.9725 0 0 0      
313 3 -1.20004874334262 363.7472742124228 -42.95447309981196 1.9725 0 0 0      
314 3 -1.20004874334262 365.7539857082473 -44.8921576645762 1.9725 0 0 0      
315 3 -1.20004874334262 365.71947224271713 -42.91995963428181 0.0 0 0 0      
316 1 1.19987027027027 367.72618373854175 -44.85764419904605 0.0 0 0 0      
317 2 2.39990287801315 369.663868303306 -42.8509327032215 1.9725 0 0 0      
318 3 -1.20004874334262 367.6916702730116 -42.885446168751656 1.9725 0 0 0      
319 3 -1.20004874334262 369.6983817688361 -44.823130733515896 1.9725 0 0 0      
320 3 -1.20004874334262 369.663868303306 -42.8509327032215 0.0 0 0 0      
321 1 1.19987027027027 371.6705797991305 -44.78861726798575 0.0 0 0 0      
322 2 2.39990287801315 373.6082643638948 -42.7819057721612 1.9725 0 0 0      
323 3 -1.20004874334262 371.6360663336004 -42.81641923769136 1.9725 0 0 0      
324 3 -1.20004874334262 373.6427778294249 -44.7541038024556 1.9725 0 0 0      
325 3 -1.20004874334262 373.6082643638948 -42.7819057721612 0.0 0 0 0      
326 1 1.19987027027027 375.6149758597193 -44.71959033692544 0.0 0 0 0      
327 2 2.39990287801315 377.5526604244836 -42.712878841100895 1.9725 0 0 0      
328 3 -1.20004874334262 375.5804623941892 -42.74739230663105 1.9725 0 0 0      
329 3 -1.20004874334262 377.5871738900137 -44.68507687139529 1.9725 0 0 0      
330 3 -1.20004874334262 377.5526604244836 -42.712878841100895 0.0 0 0 0      
331 1 1.19987027027027 379.5593719203081 -44.65056340586514 0.0 0 0 0      
332 3 -1.20004874334262 379.5248584547779 -42.67836537557075 1.9725 0 0 0      
333 3 -1.20004874334262 355.9275090223055 47.03692302252136 13.8075 0 0 0      
334 2 2.39990287801315 2.7660077374879397 -45.32604123124097 1.9725 0 0 0      
335 3 -1.20004874334262 0.7938097071935317 -45.360554696771125 1.9725 0 0 0      
336 2 2.39990287801315 357.89970705259987 47.00240955699121 13.8075 0 0 0      
337 3 -1.20004874334262 2.7660077374879397 -45.32604123124097 0.0 0 0 0      
338 1 1.19987027027027 355.89299555677536 45.06472499222696 11.834999999999996 0 0 0      
339 2 2.39990287801315 6.710403798076641 -45.25701430018067 1.9725 0 0 0      
340 3 -1.20004874334262 4.738205767782233 -45.29152776571082 1.9725 0 0 0      
341 3 -1.20004874334262 6.744917263606794 -47.229212330475065 1.9725 0 0 0      
342 3 -1.20004874334262 6.710403798076641 -45.25701430018067 0.0 0 0 0      
343 1 1.19987027027027 8.717115293901202 -47.19469886494491 0.0 0 0 0      
344 2 2.39990287801315 10.654799858665456 -45.18798736912037 1.9725 0 0 0      
345 3 -1.20004874334262 8.682601828371048 -45.22250083465052 1.9725 0 0 0      
346 3 -1.20004874334262 10.68931332419561 -47.16018539941476 1.9725 0 0 0      
347 3 -1.20004874334262 10.654799858665456 -45.18798736912037 0.0 0 0 0      
348 1 1.19987027027027 12.661511354490017 -47.12567193388461 0.0 0 0 0      
349 2 2.39990287801315 14.59919591925427 -45.118960438060064 1.9725 0 0 0      
350 3 -1.20004874334262 12.626997888959863 -45.15347390359021 1.9725 0 0 0      
351 3 -1.20004874334262 14.633709384784424 -47.09115846835446 1.9725 0 0 0      
352 3 -1.20004874334262 14.59919591925427 -45.118960438060064 0.0 0 0 0      
353 1 1.19987027027027 16.605907415078832 -47.056645002824304 0.0 0 0 0      
354 2 2.39990287801315 18.54359197984309 -45.04993350699976 1.9725 0 0 0      
355 3 -1.20004874334262 16.57139394954868 -45.08444697252991 1.9725 0 0 0      
356 3 -1.20004874334262 18.57810544537324 -47.02213153729415 1.9725 0 0 0      
357 3 -1.20004874334262 18.54359197984309 -45.04993350699976 0.0 0 0 0      
358 1 1.19987027027027 20.550303475667647 -46.987618071764 0.0 0 0 0      
359 2 2.39990287801315 22.4879880404319 -44.98090657593946 1.9725 0 0 0      
360 3 -1.20004874334262 20.515790010137493 -45.0154200414696 1.9725 0 0 0      
361 3 -1.20004874334262 22.52250150596205 -46.95310460623385 1.9725 0 0 0      
362 3 -1.20004874334262 22.4879880404319 -44.98090657593946 0.0 0 0 0      
363 1 1.19987027027027 24.494699536256466 -46.9185911407037 0.0 0 0 0      
364 2 2.39990287801315 26.4323841010206 -44.91187964487915 1.9725 0 0 0      
365 3 -1.20004874334262 24.46018607072631 -44.9463931104093 1.9725 0 0 0      
366 3 -1.20004874334262 26.46689756655076 -46.88407767517354 1.9725 0 0 0      
367 3 -1.20004874334262 26.4323841010206 -44.91187964487915 0.0 0 0 0      
368 1 1.19987027027027 28.439095596845164 -46.84956420964339 0.0 0 0 0      
369 2 2.39990287801315 30.376780161609418 -44.84285271381884 1.9725 0 0 0      
370 3 -1.20004874334262 28.40458213131501 -44.877366179349 1.9725 0 0 0      
371 3 -1.20004874334262 30.41129362713957 -46.81505074411324 1.9725 0 0 0      
372 3 -1.20004874334262 30.376780161609418 -44.84285271381884 0.0 0 0 0      
373 1 1.19987027027027 32.38349165743398 -46.78053727858309 0.0 0 0 0      