LAMMPS data file via write_data, version 19 Nov 2024, timestep = 0, units =.1 metal
              
13898 atoms             
3 atom types            
              
0 237.520453066678 xlo xhi           
-47.5040906133356 47.5040906133356 ylo yhi           
0 7.89 zlo zhi           
              
Masses              
              
1 87.62             
2 47.867             
3 15.999             
              
Atoms # charge            
              
1 1 1.19979288919572 237.49208680805123 -28.06499905655612 3.945 0 0 0      
2 2 2.39984504222704 121.16691648621202 -23.44758405335285 1.9725 0 0 0      
3 3 -1.20007787218032 119.1947184559176 -23.482097518883002 1.9725 0 0 0      
4 3 -1.20007787218032 121.16691648621202 -23.44758405335285 0.0 0 0 0      
5 2 2.39984504222704 125.11131254680078 -23.378557122292534 1.9725 0 0 0      
6 3 -1.20007787218032 123.13911451650642 -23.413070587822695 1.9725 0 0 0      
7 3 -1.20007787218032 125.11131254680078 -23.378557122292534 0.0 0 0 0      
8 2 2.39984504222704 129.05570860738965 -23.30953019123225 1.9725 0 0 0      
9 3 -1.20007787218032 127.08351057709518 -23.344043656762388 1.9725 0 0 0      
10 3 -1.20007787218032 129.05570860738965 -23.30953019123225 0.0 0 0 0      
11 2 2.39984504222704 133.0001046679784 -23.240503260171934 1.9725 0 0 0      
12 3 -1.20007787218032 131.027906637684 -23.275016725702088 1.9725 0 0 0      
13 3 -1.20007787218032 133.0001046679784 -23.240503260171934 0.0 0 0 0      
14 2 2.39984504222704 136.94450072856716 -23.171476329111634 1.9725 0 0 0      
15 3 -1.20007787218032 134.97230269827276 -23.20598979464178 1.9725 0 0 0      
16 3 -1.20007787218032 136.94450072856716 -23.171476329111634 0.0 0 0 0      
17 2 2.39984504222704 140.88889678915598 -23.102449398051327 1.9725 0 0 0      
18 3 -1.20007787218032 138.91669875886157 -23.136962863581473 1.9725 0 0 0      
19 3 -1.20007787218032 140.88889678915598 -23.102449398051327 0.0 0 0 0      
20 2 2.39984504222704 144.8332928497448 -23.03342246699102 1.9725 0 0 0      
21 3 -1.20007787218032 142.8610948194504 -23.067935932521173 1.9725 0 0 0      
22 3 -1.20007787218032 144.8332928497448 -23.03342246699102 0.0 0 0 0      
23 2 2.39984504222704 148.7776889103336 -22.96439553593072 1.9725 0 0 0      
24 3 -1.20007787218032 146.8054908800392 -22.998909001460873 1.9725 0 0 0      
25 3 -1.20007787218032 148.7776889103336 -22.96439553593072 0.0 0 0 0      
26 2 2.39984504222704 152.72208497092237 -22.895368604870413 1.9725 0 0 0      
27 3 -1.20007787218032 150.74988694062796 -22.929882070400566 1.9725 0 0 0      
28 3 -1.20007787218032 152.72208497092237 -22.895368604870413 0.0 0 0 0      
29 2 2.39984504222704 156.66648103151113 -22.82634167381012 1.9725 0 0 0      
30 3 -1.20007787218032 154.69428300121672 -22.860855139340266 1.9725 0 0 0      
31 3 -1.20007787218032 156.66648103151113 -22.82634167381012 0.0 0 0 0      
32 2 2.39984504222704 160.61087709209994 -22.757314742749806 1.9725 0 0 0      
33 3 -1.20007787218032 158.63867906180553 -22.79182820827996 1.9725 0 0 0      
34 3 -1.20007787218032 160.61087709209994 -22.757314742749806 0.0 0 0 0      
35 2 2.39984504222704 164.55527315268876 -22.688287811689506 1.9725 0 0 0      
36 3 -1.20007787218032 162.58307512239435 -22.72280127721966 1.9725 0 0 0      
37 3 -1.20007787218032 164.55527315268876 -22.688287811689506 0.0 0 0 0      
38 2 2.39984504222704 168.49966921327757 -22.6192608806292 1.9725 0 0 0      
39 3 -1.20007787218032 166.52747118298316 -22.65377434615936 1.9725 0 0 0      
40 3 -1.20007787218032 168.49966921327757 -22.6192608806292 0.0 0 0 0      
41 2 2.39984504222704 172.44406527386633 -22.5502339495689 1.9725 0 0 0      
42 3 -1.20007787218032 170.47186724357192 -22.584747415099052 1.9725 0 0 0      
43 3 -1.20007787218032 172.44406527386633 -22.5502339495689 0.0 0 0 0      
44 2 2.39984504222704 176.3884613344551 -22.4812070185086 1.9725 0 0 0      
45 3 -1.20007787218032 174.41626330416068 -22.515720484038745 1.9725 0 0 0      
46 3 -1.20007787218032 176.3884613344551 -22.4812070185086 0.0 0 0 0      
47 2 2.39984504222704 180.3328573950439 -22.41218008744829 1.9725 0 0 0      
48 3 -1.20007787218032 178.3606593647495 -22.446693552978438 1.9725 0 0 0      
49 3 -1.20007787218032 180.3328573950439 -22.41218008744829 0.0 0 0 0      
50 2 2.39984504222704 184.27725345563272 -22.343153156387984 1.9725 0 0 0      
51 3 -1.20007787218032 182.3050554253383 -22.377666621918138 1.9725 0 0 0      
52 3 -1.20007787218032 184.27725345563272 -22.343153156387984 0.0 0 0 0      
53 2 2.39984504222704 188.22164951622156 -22.274126225327684 1.9725 0 0 0      
54 3 -1.20007787218032 186.24945148592712 -22.30863969085783 1.9725 0 0 0      
55 3 -1.20007787218032 188.22164951622156 -22.274126225327684 0.0 0 0 0      
56 2 2.39984504222704 192.1660455768103 -22.205099294267377 1.9725 0 0 0      
57 3 -1.20007787218032 190.19384754651588 -22.239612759797524 1.9725 0 0 0      
58 3 -1.20007787218032 192.1660455768103 -22.205099294267377 0.0 0 0 0      
59 2 2.39984504222704 196.1104416373991 -22.13607236320707 1.9725 0 0 0      
60 3 -1.20007787218032 194.13824360710464 -22.170585828737224 1.9725 0 0 0      
61 3 -1.20007787218032 196.1104416373991 -22.13607236320707 0.0 0 0 0      
62 2 2.39984504222704 200.05483769798784 -22.06704543214677 1.9725 0 0 0      
63 3 -1.20007787218032 198.08263966769343 -22.101558897676924 1.9725 0 0 0      
64 3 -1.20007787218032 200.05483769798784 -22.06704543214677 0.0 0 0 0      
65 2 2.39984504222704 203.99923375857668 -21.998018501086463 1.9725 0 0 0      
66 3 -1.20007787218032 202.02703572828227 -22.032531966616617 1.9725 0 0 0      
67 3 -1.20007787218032 203.99923375857668 -21.998018501086463 0.0 0 0 0      
68 2 2.39984504222704 207.9436298191655 -21.928991570026163 1.9725 0 0 0      
69 3 -1.20007787218032 205.9714317888711 -21.963505035556317 1.9725 0 0 0      
70 3 -1.20007787218032 207.9436298191655 -21.928991570026163 0.0 0 0 0      
71 2 2.39984504222704 211.8880258797543 -21.859964638965856 1.9725 0 0 0      
72 3 -1.20007787218032 209.91582784945984 -21.89447810449601 1.9725 0 0 0      
73 3 -1.20007787218032 211.8880258797543 -21.859964638965856 0.0 0 0 0      
74 2 2.39984504222704 215.83242194034307 -21.790937707905556 1.9725 0 0 0      
75 3 -1.20007787218032 213.86022391004863 -21.82545117343571 1.9725 0 0 0      
76 3 -1.20007787218032 215.83242194034307 -21.790937707905556 0.0 0 0 0      
77 3 -1.20007787218032 235.55440224328703 -26.058287560731557 3.945 0 0 0      
78 2 2.39984504222704 219.77681800093185 -21.72191077684525 1.9725 0 0 0      
79 3 -1.20007787218032 217.80461997063745 -21.756424242375402 1.9725 0 0 0      
80 3 -1.20007787218032 235.51988877775688 -28.030485591025965 5.917499999999999 0 0 0      
81 3 -1.20007787218032 219.77681800093185 -21.72191077684525 0.0 0 0 0      
82 3 -1.20007787218032 233.58220421299265 -26.023774095201404 5.917499999999999 0 0 0      
83 2 2.39984504222704 223.72121406152064 -21.65288384578495 1.9725 0 0 0      
84 3 -1.20007787218032 221.74901603122623 -21.687397311315095 1.9725 0 0 0      
85 2 2.39984504222704 235.55440224328703 -26.058287560731557 5.917499999999999 0 0 0      
86 3 -1.20007787218032 223.72121406152064 -21.65288384578495 0.0 0 0 0      
87 1 1.19979288919572 233.54769074746247 -27.99597212549581 3.945 0 0 0      
88 2 2.39984504222704 227.66561012210943 -21.58385691472464 1.9725 0 0 0      
89 3 -1.20007787218032 225.69341209181505 -21.618370380254795 1.9725 0 0 0      
90 3 -1.20007787218032 231.61000618269824 -25.98926062967128 3.945 0 0 0      
91 3 -1.20007787218032 227.66561012210943 -21.58385691472464 0.0 0 0 0      
92 3 -1.20007787218032 231.5754927171681 -27.961458659965658 5.917499999999999 0 0 0      
93 2 2.39984504222704 231.61000618269824 -21.514829983664335 1.9725 0 0 0      
94 3 -1.20007787218032 229.63780815240384 -21.549343449194488 1.9725 0 0 0      
95 3 -1.20007787218032 231.6445196482284 -23.487028013958728 1.9725 0 0 0      
96 3 -1.20007787218032 231.61000618269824 -21.514829983664335 0.0 0 0 0      
97 1 1.19979288919572 233.6167176785228 -23.45251454842859 0.0 0 0 0      
98 2 2.39984504222704 235.55440224328703 -21.445803052604035 1.9725 0 0 0      
99 3 -1.20007787218032 233.58220421299265 -21.480316518134188 1.9725 0 0 0      
100 3 -1.20007787218032 235.5889157088172 -23.418001082898428 1.9725 0 0 0      
101 3 -1.20007787218032 235.55440224328703 -21.445803052604035 0.0 0 0 0      
102 3 -1.20007787218032 229.63780815240384 -25.954747164141125 5.917499999999999 0 0 0      
103 2 2.39984504222704 2.7660077374878824 -21.57399592457317 1.9725 0 0 0      
104 3 -1.20007787218032 0.7938097071934749 -21.608509390103322 1.9725 0 0 0      
105 2 2.39984504222704 231.61000618269824 -25.98926062967128 5.917499999999999 0 0 0      
106 3 -1.20007787218032 2.7660077374878824 -21.57399592457317 0.0 0 0 0      
107 1 1.19979288919572 229.60329468687368 -27.926945194435504 3.945 0 0 0      
108 2 2.39984504222704 6.7104037980766975 -21.50496899351287 1.9725 0 0 0      
109 3 -1.20007787218032 4.73820576778229 -21.539482459043015 1.9725 0 0 0      
110 3 -1.20007787218032 6.744917263606851 -23.47716702380726 1.9725 0 0 0      
111 3 -1.20007787218032 6.7104037980766975 -21.50496899351287 0.0 0 0 0      
112 1 1.19979288919572 8.717115293901259 -23.442653558277108 0.0 0 0 0      
113 2 2.39984504222704 10.654799858665456 -21.43594206245257 1.9725 0 0 0      
114 3 -1.20007787218032 8.682601828371105 -21.470455527982715 1.9725 0 0 0      
115 3 -1.20007787218032 10.68931332419561 -23.408140092746955 1.9725 0 0 0      
116 3 -1.20007787218032 10.654799858665456 -21.43594206245257 0.0 0 0 0      
117 1 1.19979288919572 12.661511354490017 -23.373626627216808 0.0 0 0 0      
118 2 2.39984504222704 14.59919591925427 -21.36691513139226 1.9725 0 0 0      
119 3 -1.20007787218032 12.626997888959863 -21.401428596922408 1.9725 0 0 0      
120 3 -1.20007787218032 14.633709384784424 -23.339113161686655 1.9725 0 0 0      
121 3 -1.20007787218032 14.59919591925427 -21.36691513139226 0.0 0 0 0      
122 1 1.19979288919572 16.605907415078832 -23.3045996961565 0.0 0 0 0      
123 2 2.39984504222704 18.54359197984309 -21.297888200331954 1.9725 0 0 0      
124 3 -1.20007787218032 16.57139394954868 -21.332401665862108 1.9725 0 0 0      
125 3 -1.20007787218032 18.57810544537324 -23.270086230626347 1.9725 0 0 0      
126 3 -1.20007787218032 18.54359197984309 -21.297888200331954 0.0 0 0 0      
127 1 1.19979288919572 20.55030347566759 -23.235572765096194 0.0 0 0 0      
128 2 2.39984504222704 22.487988040431844 -21.228861269271654 1.9725 0 0 0      
129 3 -1.20007787218032 20.51579001013744 -21.2633747348018 1.9725 0 0 0      
130 3 -1.20007787218032 22.522501505962 -23.201059299566047 1.9725 0 0 0      
131 3 -1.20007787218032 22.487988040431844 -21.228861269271654 0.0 0 0 0      
132 1 1.19979288919572 24.494699536256405 -23.166545834035894 0.0 0 0 0      
133 2 2.39984504222704 26.43238410102066 -21.159834338211347 1.9725 0 0 0      
134 3 -1.20007787218032 24.46018607072625 -21.1943478037415 1.9725 0 0 0      
135 3 -1.20007787218032 26.466897566550813 -23.13203236850574 1.9725 0 0 0      
136 3 -1.20007787218032 26.43238410102066 -21.159834338211347 0.0 0 0 0      
137 1 1.19979288919572 28.43909559684522 -23.097518902975587 0.0 0 0 0      
138 2 2.39984504222704 30.376780161609418 -21.09080740715104 1.9725 0 0 0      
139 3 -1.20007787218032 28.404582131315067 -21.1253208726812 1.9725 0 0 0      
140 3 -1.20007787218032 30.41129362713957 -23.06300543744544 1.9725 0 0 0      
141 3 -1.20007787218032 30.376780161609418 -21.09080740715104 0.0 0 0 0      
142 1 1.19979288919572 32.38349165743398 -23.028491971915287 0.0 0 0 0      
143 2 2.39984504222704 34.32117622219823 -21.02178047609074 1.9725 0 0 0      
144 3 -1.20007787218032 32.348978191903825 -21.056293941620893 1.9725 0 0 0      
145 3 -1.20007787218032 34.355689687728386 -22.993978506385133 1.9725 0 0 0      
146 3 -1.20007787218032 34.32117622219823 -21.02178047609074 0.0 0 0 0      
147 1 1.19979288919572 36.3278877180228 -22.95946504085498 0.0 0 0 0      
148 2 2.39984504222704 38.26557228278705 -20.95275354503044 1.9725 0 0 0      
149 3 -1.20007787218032 36.29337425249264 -20.987267010560586 1.9725 0 0 0      
150 3 -1.20007787218032 38.3000857483172 -22.924951575324826 1.9725 0 0 0      
151 3 -1.20007787218032 38.26557228278705 -20.95275354503044 0.0 0 0 0      
152 1 1.19979288919572 40.27228377861161 -22.89043810979468 0.0 0 0 0      
153 2 2.39984504222704 42.209968343375806 -20.883726613970133 1.9725 0 0 0      
154 3 -1.20007787218032 40.237770313081455 -20.918240079500286 1.9725 0 0 0      
155 3 -1.20007787218032 42.24448180890596 -22.855924644264526 1.9725 0 0 0      
156 3 -1.20007787218032 42.209968343375806 -20.883726613970133 0.0 0 0 0      
157 1 1.19979288919572 44.21667983920037 -22.821411178734373 0.0 0 0 0      
158 2 2.39984504222704 46.15436440396462 -20.814699682909826 1.9725 0 0 0      
159 3 -1.20007787218032 44.18216637367021 -20.84921314843998 1.9725 0 0 0      
160 3 -1.20007787218032 46.188877869494775 -22.78689771320422 1.9725 0 0 0      
161 3 -1.20007787218032 46.15436440396462 -20.814699682909826 0.0 0 0 0      
162 1 1.19979288919572 48.16107589978918 -22.752384247674065 0.0 0 0 0      
163 2 2.39984504222704 50.09876046455344 -20.745672751849526 1.9725 0 0 0      
164 3 -1.20007787218032 48.12656243425903 -20.78018621737968 1.9725 0 0 0      
165 3 -1.20007787218032 50.13327393008359 -22.71787078214392 1.9725 0 0 0      
166 3 -1.20007787218032 50.09876046455344 -20.745672751849526 0.0 0 0 0      
167 1 1.19979288919572 52.10547196037794 -22.683357316613765 0.0 0 0 0      
168 2 2.39984504222704 54.043156525142194 -20.67664582078922 1.9725 0 0 0      
169 3 -1.20007787218032 52.07095849484779 -20.711159286319372 1.9725 0 0 0      
170 3 -1.20007787218032 54.07766999067235 -22.648843851083612 1.9725 0 0 0      
171 3 -1.20007787218032 54.043156525142194 -20.67664582078922 0.0 0 0 0      
172 1 1.19979288919572 56.04986802096676 -22.61433038555346 0.0 0 0 0      
173 2 2.39984504222704 57.98755258573101 -20.60761888972892 1.9725 0 0 0      
174 3 -1.20007787218032 56.0153545554366 -20.642132355259065 1.9725 0 0 0      
175 3 -1.20007787218032 58.02206605126116 -22.57981692002332 1.9725 0 0 0      
176 3 -1.20007787218032 57.98755258573101 -20.60761888972892 0.0 0 0 0      
177 1 1.19979288919572 59.99426408155557 -22.54530345449316 0.0 0 0 0      
178 2 2.39984504222704 61.93194864631983 -20.53859195866861 1.9725 0 0 0      
179 3 -1.20007787218032 59.95975061602542 -20.573105424198765 1.9725 0 0 0      
180 3 -1.20007787218032 61.96646211184998 -22.510789988963005 1.9725 0 0 0      
181 3 -1.20007787218032 61.93194864631983 -20.53859195866861 0.0 0 0 0      
182 1 1.19979288919572 63.93866014214433 -22.47627652343285 0.0 0 0 0      
183 2 2.39984504222704 65.87634470690858 -20.469565027608304 1.9725 0 0 0      
184 3 -1.20007787218032 63.904146676614175 -20.504078493138458 1.9725 0 0 0      
185 3 -1.20007787218032 65.91085817243874 -22.441763057902698 1.9725 0 0 0      
186 3 -1.20007787218032 65.87634470690858 -20.469565027608304 0.0 0 0 0      
187 1 1.19979288919572 67.88305620273314 -22.40724959237255 0.0 0 0 0      
188 2 2.39984504222704 69.82074076749734 -20.400538096548004 1.9725 0 0 0      
189 3 -1.20007787218032 67.84854273720299 -20.435051562078158 1.9725 0 0 0      
190 3 -1.20007787218032 69.8552542330275 -22.372736126842398 1.9725 0 0 0      
191 3 -1.20007787218032 69.82074076749734 -20.400538096548004 0.0 0 0 0      
192 1 1.19979288919572 71.8274522633219 -22.338222661312244 0.0 0 0 0      
193 2 2.39984504222704 73.76513682808616 -20.331511165487697 1.9725 0 0 0      
194 3 -1.20007787218032 71.79293879779175 -20.366024631017844 1.9725 0 0 0      
195 3 -1.20007787218032 73.79965029361631 -22.30370919578209 1.9725 0 0 0      
196 3 -1.20007787218032 73.76513682808616 -20.331511165487697 0.0 0 0 0      
197 1 1.19979288919572 75.77184832391072 -22.269195730251944 0.0 0 0 0      
198 2 2.39984504222704 77.70953288867497 -20.262484234427397 1.9725 0 0 0      
199 3 -1.20007787218032 75.73733485838056 -20.296997699957558 1.9725 0 0 0      
200 3 -1.20007787218032 77.74404635420512 -22.23468226472179 1.9725 0 0 0      
201 3 -1.20007787218032 77.70953288867497 -20.262484234427397 0.0 0 0 0      
202 1 1.19979288919572 79.71624438449953 -22.200168799191637 0.0 0 0 0      
203 2 2.39984504222704 81.65392894926379 -20.19345730336709 1.9725 0 0 0      
204 3 -1.20007787218032 79.68173091896938 -20.227970768897244 1.9725 0 0 0      
205 3 -1.20007787218032 81.68844241479394 -22.165655333661483 1.9725 0 0 0      
206 3 -1.20007787218032 81.65392894926379 -20.19345730336709 0.0 0 0 0      
207 1 1.19979288919572 83.66064044508829 -22.13114186813133 0.0 0 0 0      
208 2 2.39984504222704 85.59832500985254 -20.12443037230679 1.9725 0 0 0      
209 3 -1.20007787218032 83.62612697955814 -20.158943837836937 1.9725 0 0 0      
210 3 -1.20007787218032 85.6328384753827 -22.096628402601183 1.9725 0 0 0      
211 3 -1.20007787218032 85.59832500985254 -20.12443037230679 0.0 0 0 0      
212 1 1.19979288919572 87.6050365056771 -22.06211493707103 0.0 0 0 0      
213 2 2.39984504222704 89.54272107044136 -20.055403441246483 1.9725 0 0 0      
214 3 -1.20007787218032 87.57052304014695 -20.089916906776637 1.9725 0 0 0      
215 3 -1.20007787218032 89.57723453597151 -22.027601471540876 1.9725 0 0 0      
216 3 -1.20007787218032 89.54272107044136 -20.055403441246483 0.0 0 0 0      
217 1 1.19979288919572 91.54943256626586 -21.993088006010723 0.0 0 0 0      
218 2 2.39984504222704 93.48711713103012 -19.98637651018619 1.9725 0 0 0      
219 3 -1.20007787218032 91.51491910073572 -20.02088997571633 1.9725 0 0 0      
220 3 -1.20007787218032 93.52163059656029 -21.958574540480576 1.9725 0 0 0      
221 3 -1.20007787218032 93.48711713103012 -19.98637651018619 0.0 0 0 0      
222 1 1.19979288919572 95.49382862685468 -21.92406107495043 0.0 0 0 0      
223 2 2.39984504222704 97.43151319161892 -19.917349579125876 1.9725 0 0 0      
224 3 -1.20007787218032 95.45931516132453 -19.95186304465603 1.9725 0 0 0      
225 3 -1.20007787218032 97.46602665714909 -21.88954760942027 1.9725 0 0 0      
226 3 -1.20007787218032 97.43151319161892 -19.917349579125876 0.0 0 0 0      
227 1 1.19979288919572 99.4382246874435 -21.855034143890116 0.0 0 0 0      
228 2 2.39984504222704 101.37590925220776 -19.848322648065576 1.9725 0 0 0      
229 3 -1.20007787218032 99.40371122191334 -19.882836113595722 1.9725 0 0 0      
230 3 -1.20007787218032 101.4104227177379 -21.82052067835997 1.9725 0 0 0      
231 3 -1.20007787218032 101.37590925220776 -19.848322648065576 0.0 0 0 0      
232 1 1.19979288919572 103.38262074803224 -21.786007212829816 0.0 0 0 0      
233 2 2.39984504222704 105.3203053127965 -19.77929571700527 1.9725 0 0 0      
234 3 -1.20007787218032 103.3481072825021 -19.813809182535422 1.9725 0 0 0      
235 3 -1.20007787218032 105.35481877832666 -21.751493747299662 1.9725 0 0 0      
236 3 -1.20007787218032 105.3203053127965 -19.77929571700527 0.0 0 0 0      
237 1 1.19979288919572 107.32701680862108 -21.71698028176951 0.0 0 0 0      
238 2 2.39984504222704 109.26470137338532 -19.71026878594496 1.9725 0 0 0      
239 3 -1.20007787218032 107.29250334309091 -19.744782251475115 1.9725 0 0 0      
240 3 -1.20007787218032 109.29921483891547 -21.682466816239355 1.9725 0 0 0      
241 3 -1.20007787218032 109.26470137338532 -19.71026878594496 0.0 0 0 0      
242 1 1.19979288919572 111.27141286920984 -21.64795335070921 0.0 0 0 0      
243 2 2.39984504222704 113.20909743397408 -19.64124185488467 1.9725 0 0 0      
244 3 -1.20007787218032 111.23689940367969 -19.675755320414815 1.9725 0 0 0      
245 3 -1.20007787218032 113.24361089950423 -21.613439885179055 1.9725 0 0 0      
246 3 -1.20007787218032 113.20909743397408 -19.64124185488467 0.0 0 0 0      
247 1 1.19979288919572 115.21580892979864 -21.5789264196489 0.0 0 0 0      
248 2 2.39984504222704 117.1534934945629 -19.572214923824355 1.9725 0 0 0      
249 3 -1.20007787218032 115.18129546426847 -19.606728389354508 1.9725 0 0 0      
250 3 -1.20007787218032 117.18800696009303 -21.544412954118748 1.9725 0 0 0      
251 3 -1.20007787218032 117.1534934945629 -19.572214923824355 0.0 0 0 0      
252 1 1.19979288919572 119.16020499038746 -21.509899488588594 0.0 0 0 0      
253 2 2.39984504222704 121.09788955515172 -19.503187992764055 1.9725 0 0 0      
254 3 -1.20007787218032 119.1256915248573 -19.537701458294208 1.9725 0 0 0      
255 3 -1.20007787218032 121.13240302068186 -21.475386023058448 1.9725 0 0 0      
256 3 -1.20007787218032 121.09788955515172 -19.503187992764055 0.0 0 0 0      
257 1 1.19979288919572 123.10460105097629 -21.440872557528294 0.0 0 0 0      
258 2 2.39984504222704 125.04228561574048 -19.434161061703747 1.9725 0 0 0      
259 3 -1.20007787218032 123.07008758544612 -19.468674527233894 1.9725 0 0 0      
260 3 -1.20007787218032 125.07679908127062 -21.406359091998134 1.9725 0 0 0      
261 3 -1.20007787218032 125.04228561574048 -19.434161061703747 0.0 0 0 0      
262 1 1.19979288919572 127.04899711156504 -21.371845626467994 0.0 0 0 0      
263 2 2.39984504222704 128.98668167632934 -19.365134130643447 1.9725 0 0 0      
264 3 -1.20007787218032 127.01448364603488 -19.399647596173608 1.9725 0 0 0      
265 3 -1.20007787218032 129.0211951418595 -21.337332160937848 1.9725 0 0 0      
266 3 -1.20007787218032 128.98668167632934 -19.365134130643447 0.0 0 0 0      
267 1 1.19979288919572 130.99339317215384 -21.302818695407687 0.0 0 0 0      
268 2 2.39984504222704 132.9310777369181 -19.29610719958314 1.9725 0 0 0      
269 3 -1.20007787218032 130.9588797066237 -19.330620665113294 1.9725 0 0 0      
270 3 -1.20007787218032 132.96559120244825 -21.268305229877534 1.9725 0 0 0      
271 3 -1.20007787218032 132.9310777369181 -19.29610719958314 0.0 0 0 0      
272 1 1.19979288919572 134.9377892327426 -21.23379176434738 0.0 0 0 0      
273 2 2.39984504222704 136.87547379750686 -19.22708026852284 1.9725 0 0 0      
274 3 -1.20007787218032 134.90327576721245 -19.261593734052987 1.9725 0 0 0      
275 3 -1.20007787218032 136.909987263037 -21.199278298817234 1.9725 0 0 0      
276 3 -1.20007787218032 136.87547379750686 -19.22708026852284 0.0 0 0 0      
277 1 1.19979288919572 138.88218529333142 -21.16476483328708 0.0 0 0 0      
278 2 2.39984504222704 140.81986985809567 -19.158053337462533 1.9725 0 0 0      
279 3 -1.20007787218032 138.84767182780126 -19.192566802992687 1.9725 0 0 0      
280 3 -1.20007787218032 140.85438332362585 -21.130251367756927 1.9725 0 0 0      
281 3 -1.20007787218032 140.81986985809567 -19.158053337462533 0.0 0 0 0      
282 1 1.19979288919572 142.82658135392023 -21.095737902226773 0.0 0 0 0      
283 2 2.39984504222704 144.7642659186845 -19.08902640640224 1.9725 0 0 0      
284 3 -1.20007787218032 142.79206788839008 -19.12353987193238 1.9725 0 0 0      
285 3 -1.20007787218032 144.79877938421464 -21.061224436696627 1.9725 0 0 0      
286 3 -1.20007787218032 144.7642659186845 -19.08902640640224 0.0 0 0 0      
287 1 1.19979288919572 146.77097741450905 -21.02671097116648 0.0 0 0 0      
288 2 2.39984504222704 148.7086619792733 -19.019999475341926 1.9725 0 0 0      
289 3 -1.20007787218032 146.7364639489789 -19.05451294087208 1.9725 0 0 0      
290 3 -1.20007787218032 148.74317544480346 -20.99219750563632 1.9725 0 0 0      
291 3 -1.20007787218032 148.7086619792733 -19.019999475341926 0.0 0 0 0      
292 1 1.19979288919572 150.7153734750978 -20.957684040106166 0.0 0 0 0      
293 2 2.39984504222704 152.65305803986206 -18.95097254428162 1.9725 0 0 0      
294 3 -1.20007787218032 150.68086000956765 -18.985486009811773 1.9725 0 0 0      
295 3 -1.20007787218032 152.6875715053922 -20.923170574576012 1.9725 0 0 0      
296 3 -1.20007787218032 152.65305803986206 -18.95097254428162 0.0 0 0 0      
297 1 1.19979288919572 154.65976953568656 -20.888657109045866 0.0 0 0 0      
298 2 2.39984504222704 156.59745410045082 -18.88194561322132 1.9725 0 0 0      
299 3 -1.20007787218032 154.6252560701564 -18.91645907875148 1.9725 0 0 0      
300 3 -1.20007787218032 156.63196756598097 -20.85414364351572 1.9725 0 0 0      
301 3 -1.20007787218032 156.59745410045082 -18.88194561322132 0.0 0 0 0      
302 1 1.19979288919572 158.60416559627538 -20.81963017798556 0.0 0 0 0      
303 2 2.39984504222704 160.54185016103963 -18.812918682161012 1.9725 0 0 0      
304 3 -1.20007787218032 158.56965213074523 -18.847432147691165 1.9725 0 0 0      
305 3 -1.20007787218032 160.5763636265698 -20.785116712455405 1.9725 0 0 0      
306 3 -1.20007787218032 160.54185016103963 -18.812918682161012 0.0 0 0 0      
307 1 1.19979288919572 162.5485616568642 -20.75060324692526 0.0 0 0 0      
308 2 2.39984504222704 164.48624622162845 -18.74389175110072 1.9725 0 0 0      
309 3 -1.20007787218032 162.51404819133404 -18.778405216630865 1.9725 0 0 0      
310 3 -1.20007787218032 164.5207596871586 -20.716089781395105 1.9725 0 0 0      
311 3 -1.20007787218032 164.48624622162845 -18.74389175110072 0.0 0 0 0      
312 1 1.19979288919572 166.492957717453 -20.68157631586496 0.0 0 0 0      
313 2 2.39984504222704 168.43064228221726 -18.674864820040405 1.9725 0 0 0      
314 3 -1.20007787218032 166.45844425192286 -18.70937828557056 1.9725 0 0 0      
315 3 -1.20007787218032 168.46515574774742 -20.647062850334798 1.9725 0 0 0      
316 3 -1.20007787218032 168.43064228221726 -18.674864820040405 0.0 0 0 0      
317 1 1.19979288919572 170.43735377804177 -20.612549384804645 0.0 0 0 0      
318 2 2.39984504222704 172.37503834280602 -18.605837888980105 1.9725 0 0 0      
319 3 -1.20007787218032 170.4028403125116 -18.640351354510244 1.9725 0 0 0      
320 3 -1.20007787218032 172.40955180833618 -20.578035919274498 1.9725 0 0 0      
321 3 -1.20007787218032 172.37503834280602 -18.605837888980105 0.0 0 0 0      
322 1 1.19979288919572 174.38174983863053 -20.543522453744345 0.0 0 0 0      
323 2 2.39984504222704 176.31943440339478 -18.536810957919798 1.9725 0 0 0      
324 3 -1.20007787218032 174.34723637310037 -18.57132442344996 1.9725 0 0 0      
325 3 -1.20007787218032 176.35394786892493 -20.509008988214198 1.9725 0 0 0      
326 3 -1.20007787218032 176.31943440339478 -18.536810957919798 0.0 0 0 0      
327 1 1.19979288919572 178.32614589921934 -20.474495522684037 0.0 0 0 0      
328 2 2.39984504222704 180.2638304639836 -18.467784026859498 1.9725 0 0 0      
329 3 -1.20007787218032 178.2916324336892 -18.502297492389644 1.9725 0 0 0      
330 3 -1.20007787218032 180.29834392951372 -20.43998205715389 1.9725 0 0 0      
331 3 -1.20007787218032 180.2638304639836 -18.467784026859498 0.0 0 0 0      
332 1 1.19979288919572 182.27054195980816 -20.405468591623737 0.0 0 0 0      
333 2 2.39984504222704 184.2082265245724 -18.39875709579919 1.9725 0 0 0      
334 3 -1.20007787218032 182.236028494278 -18.433270561329344 1.9725 0 0 0      
335 3 -1.20007787218032 184.24273999010256 -20.370955126093584 1.9725 0 0 0      
336 3 -1.20007787218032 184.2082265245724 -18.39875709579919 0.0 0 0 0      
337 1 1.19979288919572 186.21493802039697 -20.33644166056343 0.0 0 0 0      
338 2 2.39984504222704 188.15262258516125 -18.329730164738884 1.9725 0 0 0      
339 3 -1.20007787218032 186.1804245548668 -18.364243630269037 1.9725 0 0 0      
340 3 -1.20007787218032 188.18713605069135 -20.301928195033284 1.9725 0 0 0      
341 3 -1.20007787218032 188.15262258516125 -18.329730164738884 0.0 0 0 0      
342 1 1.19979288919572 190.15933408098573 -20.26741472950313 0.0 0 0 0      
343 2 2.39984504222704 192.09701864575 -18.260703233678584 1.9725 0 0 0      
344 3 -1.20007787218032 190.1248206154556 -18.295216699208737 1.9725 0 0 0      
345 3 -1.20007787218032 192.1315321112801 -20.232901263972977 1.9725 0 0 0      
346 3 -1.20007787218032 192.09701864575 -18.260703233678584 0.0 0 0 0      
347 1 1.19979288919572 194.1037301415745 -20.19838779844283 0.0 0 0 0      
348 2 2.39984504222704 196.0414147063388 -18.191676302618276 1.9725 0 0 0      
349 3 -1.20007787218032 194.06921667604436 -18.22618976814843 1.9725 0 0 0      
350 3 -1.20007787218032 196.07592817186892 -20.16387433291267 1.9725 0 0 0      
351 3 -1.20007787218032 196.0414147063388 -18.191676302618276 0.0 0 0 0      
352 1 1.19979288919572 198.0481262021633 -20.129360867382523 0.0 0 0 0      
353 2 2.39984504222704 199.9858107669276 -18.122649371557976 1.9725 0 0 0      
354 3 -1.20007787218032 198.01361273663315 -18.15716283708813 1.9725 0 0 0      
355 3 -1.20007787218032 200.0203242324577 -20.09484740185237 1.9725 0 0 0      
356 3 -1.20007787218032 199.9858107669276 -18.122649371557976 0.0 0 0 0      
357 1 1.19979288919572 201.9925222627521 -20.060333936322216 0.0 0 0 0      
358 2 2.39984504222704 203.9302068275164 -18.05362244049767 1.9725 0 0 0      
359 3 -1.20007787218032 201.958008797222 -18.088135906027823 1.9725 0 0 0      
360 3 -1.20007787218032 203.96472029304653 -20.025820470792063 1.9725 0 0 0      
361 3 -1.20007787218032 203.9302068275164 -18.05362244049767 0.0 0 0 0      
362 1 1.19979288919572 205.93691832334093 -19.991307005261916 0.0 0 0 0      
363 2 2.39984504222704 207.8746028881052 -17.98459550943737 1.9725 0 0 0      
364 3 -1.20007787218032 205.9024048578108 -18.019108974967523 1.9725 0 0 0      
365 3 -1.20007787218032 207.9091163536353 -19.956793539731763 1.9725 0 0 0      
366 3 -1.20007787218032 207.8746028881052 -17.98459550943737 0.0 0 0 0      
367 1 1.19979288919572 209.8813143839297 -19.92228007420161 0.0 0 0 0      
368 2 2.39984504222704 211.818998948694 -17.91556857837707 1.9725 0 0 0      
369 3 -1.20007787218032 209.84680091839957 -17.950082043907216 1.9725 0 0 0      
370 3 -1.20007787218032 211.85351241422416 -19.887766608671456 1.9725 0 0 0      
371 3 -1.20007787218032 211.818998948694 -17.91556857837707 0.0 0 0 0      
372 1 1.19979288919572 213.8257104445185 -19.85325314314131 0.0 0 0 0      