LAMMPS data file via write_data, version 17 Apr 2024, timestep = 6, units = metal

28730 atoms
3 atom types

-0.5316857774603879 238.05213884413837 xlo xhi
-142.15556880538182 47.14738757871039 ylo yhi
0.010390981883247915 7.879609018116752 zlo zhi

Masses

1 87.62
2 47.867
3 15.999

Atoms # charge

137 2 2.39969015403716 1.027955060697769 -140.42097235196908 1.9778785721558727 0 0 0
139 3 -1.20015527937199 1.151700132015953 -140.40831666531037 0.010601156691196862 0 0 0
142 3 -1.20015527937199 3.0842417353676392 -140.23959846727686 1.9780042198494847 0 0 0
141 2 2.39969015403716 5.122484348797869 -139.96714142682157 1.9782064676936228 0 0 0
143 3 -1.20015527937199 5.479843242235764 -141.79366759030947 1.9783277918562796 0 0 0
144 3 -1.20015527937199 5.1377647551282735 -139.96711589874488 0.010905479271573213 0 0 0
10890 1 1.19958649207443 3.02121588396859 -142.1321786187553 3.9448745758676997 0 0 0
145 1 1.19958649207443 7.426803766971601 -141.45097826037522 0.011742604182520629 0 0 0
147 3 -1.20015527937199 7.246856652722511 -139.70380987010856 1.9785588543805253 0 0 0
146 2 2.39969015403716 9.257237774638623 -139.57674227796142 1.9787846208461768 0 0 0
149 3 -1.20015527937199 9.246934057532503 -139.59035104146474 0.01149586140035618 0 0 0
148 3 -1.20015527937199 9.420764464331501 -141.47227340179865 1.979419410582357 0 0 0
150 1 1.19958649207443 11.366370311010156 -141.3112979193751 0.012328653937980364 0 0 0
152 3 -1.20015527937199 11.232443557757657 -139.4653615386802 1.978787880092914 0 0 0
151 2 2.39969015403716 13.183567969929232 -139.38061522263308 1.9788208985851141 0 0 0
153 3 -1.20015527937199 13.30618546377112 -141.32037495014097 1.9793713211026769 0 0 0
154 3 -1.20015527937199 13.18175440222451 -139.39074489464053 0.01150238498867802 0 0 0
155 1 1.19958649207443 15.236778706278784 -141.17966279915163 0.011973998549289613 0 0 0
157 3 -1.20015527937199 15.124724484638799 -139.2906577420439 1.9786524080956245 0 0 0
156 2 2.39969015403716 17.057671340581017 -139.22737816113386 1.978551230277373 0 0 0
159 3 -1.20015527937199 17.058366613567895 -139.23273989567244 0.01123516553227381 0 0 0
158 3 -1.20015527937199 17.156663043839735 -141.18753933354662 1.978883396782604 0 0 0
162 3 -1.20015527937199 18.987109664405487 -139.15475856675522 1.9783759020185758 0 0 0
160 1 1.19958649207443 19.082240792308724 -141.06382584314267 0.011413511212396109 0 0 0
161 2 2.39969015403716 20.909451068623724 -139.0977466922615 1.9782453242336429 0 0 0
163 3 -1.20015527937199 21.00117230319832 -141.0726199869016 1.9784074592349694 0 0 0
164 3 -1.20015527937199 20.912406673685847 -139.0998354086509 0.010936063463309042 0 0 0
165 1 1.19958649207443 22.919819518397137 -140.9536256736282 0.010972202568491997 0 0 0
167 3 -1.20015527937199 22.833347331643978 -139.02946242129465 1.9781199088009256 0 0 0
166 2 2.39969015403716 24.751482753505112 -138.9787292922602 1.978015131037101 0 0 0
168 3 -1.20015527937199 24.83728920987188 -140.9613349865962 1.9780843363512357 0 0 0
169 3 -1.20015527937199 24.75586771113999 -138.97852970609574 0.010709988942114182 0 0 0
170 1 1.19958649207443 26.75095623676507 -140.8485540992724 0.010698447292985865 0 0 0
172 3 -1.20015527937199 26.674616044197013 -138.91518959914546 1.9779388065804007 0 0 0
173 3 -1.20015527937199 28.670465088811017 -140.85838516196276 1.977896779297535 0 0 0
175 1 1.19958649207443 30.58261434481462 -140.75221185062784 0.010546866536083105 0 0 0
178 3 -1.20015527937199 32.50688697429977 -140.7648223452443 1.977796334197449 0 0 0
180 1 1.19958649207443 34.41925300965699 -140.6654543836531 0.010468087188815697 0 0 0
183 3 -1.20015527937199 36.350997884922585 -140.6805187521007 1.9777450897909754 0 0 0
185 1 1.19958649207443 38.26424290533973 -140.58671175163747 0.010428595684122943 0 0 0
188 3 -1.20015527937199 40.205289120175614 -140.60392903924938 1.9777195800737246 0 0 0
190 1 1.19958649207443 42.118552323992 -140.51372786010728 0.010409176949479786 0 0 0
193 3 -1.20015527937199 44.068534502502345 -140.53261487617056 1.9777071138148306 0 0 0
195 1 1.19958649207443 45.981485865543334 -140.44588214293904 0.010399756861877602 0 0 0
198 3 -1.20015527937199 47.94112179353432 -140.46647279021664 1.9777010894701952 0 0 0
200 1 1.19958649207443 49.8531882207827 -140.38257004470398 0.010395219816508858 0 0 0
203 3 -1.20015527937199 51.822972907381434 -140.4036820244161 1.9776981915861382 0 0 0
205 1 1.19958649207443 53.73328056502255 -140.32049519153753 0.010393035064929128 0 0 0
208 3 -1.20015527937199 55.71369145591739 -140.33950371569586 1.9776967945294042 0 0 0
210 1 1.19958649207443 57.618741992717766 -140.25358745544432 0.010391976281712413 0 0 0
213 3 -1.20015527937199 59.60440994287263 -140.268069778736 1.977696121321496 0 0 0
215 1 1.19958649207443 61.50269618715073 -140.18170939275225 0.010391462675292933 0 0 0
218 3 -1.20015527937199 63.494549080942505 -140.20064786002658 1.9776957946802722 0 0 0
220 1 1.19958649207443 65.3855253229365 -140.12004514715872 0.010391215466465131 0 0 0
223 3 -1.20015527937199 67.3878214722458 -140.14499036993394 1.97769563761047 0 0 0
225 1 1.19958649207443 69.26812262728464 -140.06797582777853 0.010391095947808583 0 0 0
228 3 -1.20015527937199 71.28157500277369 -140.09393412530832 1.9776955619869299 0 0 0
230 1 1.19958649207443 73.14689915436598 -140.01461932297568 0.01039103788183906 0 0 0
233 3 -1.20015527937199 75.17079307495753 -140.03960528150697 1.9776955254155166 0 0 0
235 1 1.19958649207443 77.01064247826955 -139.9645783441197 0.010391009439126082 0 0 0
238 3 -1.20015527937199 79.03909136855098 -139.99665271663477 1.9776955074970202 0 0 0
240 1 1.19958649207443 80.84310063889734 -139.92740464323523 0.010390995319136374 0 0 0
243 3 -1.20015527937199 82.88658328696066 -139.96808595326982 1.9776954976212684 0 0 0
1 2 2.39969015403716 86.44344167541288 -142.07702175376852 1.9776954914435063 0 0 0
2 3 -1.20015527937199 86.1400860927158 -141.99925659487386 0.010390982350259622 0 0 0
245 1 1.19958649207443 84.580485709451 -139.84864268921433 0.010390986584063046 0 0 0
248 3 -1.20015527937199 86.44200001216997 -140.19927722670633 1.977695492425735 0 0 0
250 1 1.19958649207443 88.48843939018482 -140.12023163739423 0.01039098310129277 0 0 0
253 3 -1.20015527937199 90.40574955683796 -140.28311609975555 1.9776954915112268 0 0 0
255 1 1.19958649207443 92.32524909392716 -140.3562943683864 0.010390982293684662 0 0 0
258 3 -1.20015527937199 94.33435873279507 -140.39208338355567 1.9776954911606723 0 0 0
260 1 1.19958649207443 96.18279896080318 -140.588599381566 0.010390982013600381 0 0 0
263 3 -1.20015527937199 98.33517301698615 -140.52084580592012 1.9776954910434423 0 0 0
265 1 1.19958649207443 100.27135781929407 -140.77060130743664 0.010390981925345235 0 0 0
267 3 -1.20015527937199 102.04397340459232 -139.89269871455352 1.977695491016735 0 0 0
273 3 -1.20015527937199 105.69343969834493 -141.25558052477217 1.977695490930665 0 0 0
11020 1 1.19958649207443 104.10658330511419 -140.94848604790158 3.9449999999861456 0 0 0
15 2 2.39969015403716 107.55733408465403 -141.1293890336244 1.97769549094487 0 0 0
17 3 -1.20015527937199 107.54858639404118 -141.00475211955305 0.01039098188328078 0 0 0
19 3 -1.20015527937199 109.47642140203074 -141.48391862630598 1.9776954909392008 0 0 0
275 1 1.19958649207443 109.47995895933768 -139.5454359924892 0.010390981895370155 0 0 0
277 3 -1.20015527937199 107.85326725541915 -139.08197461127946 1.9776954909632374 0 0 0
18 2 2.39969015403716 111.4407372418248 -141.30990414688694 1.9776954909465947 0 0 0
20 3 -1.20015527937199 111.44557657143332 -141.1142091356278 0.010390981885827034 0 0 0
22 3 -1.20015527937199 113.35164466038658 -141.47055711056606 1.9776954909419866 0 0 0
278 3 -1.20015527937199 111.25119130025497 -139.30971980585835 1.9776954909503235 0 0 0
280 1 1.19958649207443 113.42048228811055 -139.46138839274846 0.010390981888069053 0 0 0
21 2 2.39969015403716 115.35897972223823 -141.28157123123887 1.9776954909441022 0 0 0
23 3 -1.20015527937199 115.33114907000372 -141.12009621915544 0.01039098188478472 0 0 0
283 3 -1.20015527937199 115.19938404390147 -139.31577723003608 1.9776954909455975 0 0 0
25 3 -1.20015527937199 117.26166474405343 -141.48847199328912 1.9776954909418814 0 0 0
285 1 1.19958649207443 117.30580126066053 -139.37785669306723 0.010390981886010503 0 0 0
24 2 2.39969015403716 119.26157487682404 -141.26059849978216 1.977695490942834 0 0 0
26 3 -1.20015527937199 119.2250459571199 -141.11474301235035 0.010390981884049588 0 0 0
288 3 -1.20015527937199 119.15905353743592 -139.31237050866142 1.9776954909435212 0 0 0
27 2 2.39969015403716 123.16230212386898 -141.24209616803395 1.9776954909422033 0 0 0
28 3 -1.20015527937199 121.1712604110171 -141.4969922568935 1.977695490941755 0 0 0
29 3 -1.20015527937199 123.12996784277502 -141.10040513412045 0.010390981883623638 0 0 0
290 1 1.19958649207443 121.20184165575353 -139.34186467890095 0.010390981884630847 0 0 0
293 3 -1.20015527937199 123.07022522929978 -139.29403772042437 1.9776954909425235 0 0 0
31 3 -1.20015527937199 125.08012423199798 -141.4843502033374 1.9776954909416733 0 0 0
295 1 1.19958649207443 125.10272568693121 -139.31442172569393 0.01039098188389261 0 0 0
30 2 2.39969015403716 127.06732189307884 -141.22302943215308 1.9776954909418725 0 0 0
32 3 -1.20015527937199 127.03931634004925 -141.08435430563281 0.010390981883383452 0 0 0
298 3 -1.20015527937199 126.9924380750363 -139.27628733873397 1.977695490942026 0 0 0
34 3 -1.20015527937199 128.99348017650922 -141.47163879335505 1.9776954909415945 0 0 0
300 1 1.19958649207443 129.0111980838994 -139.29290935574383 0.010390981883502027 0 0 0
33 2 2.39969015403716 130.9776463389016 -141.20655760211832 1.9776954909416664 0 0 0
37 3 -1.20015527937199 132.9101206075405 -141.45959375305017 1.977695490941501 0 0 0
303 3 -1.20015527937199 130.9146318096723 -139.25942395711462 1.9776954909417332 0 0 0
305 1 1.19958649207443 132.92498041764185 -139.2751414965696 0.01039098188329757 0 0 0
36 2 2.39969015403716 134.89177535503225 -141.1929725123003 1.977695490941489 0 0 0
308 3 -1.20015527937199 134.8393256692923 -139.2448141199338 1.9776954909415343 0 0 0
10788 3 -1.20015527937199 134.87120771958368 -141.0564257599965 3.9449999999998964 0 0 0
40 3 -1.20015527937199 136.82842110774013 -141.45008075804066 1.9776954909413318 0 0 0
39 2 2.39969015403716 138.80660573638917 -141.18160594527072 1.977695490941247 0 0 0
313 3 -1.20015527937199 138.76357354546025 -139.23156161982214 1.9776954909413222 0 0 0
11060 1 1.19958649207443 136.84134547218628 -139.2593149808951 3.944999999999752 0 0 0
10791 3 -1.20015527937199 138.78956757036707 -141.04471423338978 3.944999999999651 0 0 0
42 2 2.39969015403716 142.7222037948469 -141.1699095262734 1.9776954909408127 0 0 0
43 3 -1.20015527937199 140.74737294683126 -141.44082516763143 1.9776954909409987 0 0 0
318 3 -1.20015527937199 142.68755560501347 -139.2180165440591 1.9776954909408808 0 0 0
10794 3 -1.20015527937199 142.70775088674776 -141.0333875780409 3.9449999999991787 0 0 0
11065 1 1.19958649207443 140.75808053125022 -139.24472723134664 3.9449999999994456 0 0 0
46 3 -1.20015527937199 144.665827157604 -141.43043827883255 1.9776954909402464 0 0 0
11070 1 1.19958649207443 144.67549563444854 -139.22952383684748 3.9449999999988656 0 0 0
45 2 2.39969015403716 146.6386736994712 -141.157021838699 1.9776954909398827 0 0 0
49 3 -1.20015527937199 148.58492096326586 -141.41846016515396 1.9776954909387574 0 0 0
323 3 -1.20015527937199 146.61130716379205 -139.20359669748632 1.9776954909400517 0 0 0
10797 3 -1.20015527937199 146.6259697193065 -141.02037220933474 3.9449999999983927 0 0 0
11075 1 1.19958649207443 148.593372811514 -139.21350421978912 3.944999999997597 0 0 0
48 2 2.39969015403716 150.55557944638548 -141.1431674867542 1.9776954909380335 0 0 0
52 3 -1.20015527937199 152.5055073949745 -141.40512935683387 1.977695490935703 0 0 0
328 3 -1.20015527937199 150.5353159859381 -139.1883089542975 1.9776954909384459 0 0 0
10800 3 -1.20015527937199 150.54537604876714 -141.00629089647774 3.944999999996751 0 0 0
11080 1 1.19958649207443 152.51313703977073 -139.19763775869444 3.9449999999951273 0 0 0
51 2 2.39969015403716 154.47535188905945 -141.12818553114718 1.9776954909343922 0 0 0
333 3 -1.20015527937199 154.46122016914404 -139.17269131124564 1.9776954909353002 0 0 0
10803 3 -1.20015527937199 154.46737062130092 -140.99149261881433 3.94499999999289 0 0 0
54 2 2.39969015403716 158.4008100457365 -141.11051553708953 1.9776954909273083 0 0 0
55 3 -1.20015527937199 156.43023345577407 -141.3897409686946 1.9776954909296063 0 0 0
338 3 -1.20015527937199 158.39119200103644 -139.15507285891476 1.9776954909293716 0 0 0
10806 3 -1.20015527937199 158.39402680703208 -140.97432276201357 3.9449999999836973 0 0 0
11085 1 1.19958649207443 156.4362069406665 -139.18122373270722 3.9449999999906757 0 0 0
57 2 2.39969015403716 162.3310687520556 -141.08971867938124 1.977695490914125 0 0 0
58 3 -1.20015527937199 160.35994213814368 -141.37119083665573 1.977695490917664 0 0 0
343 3 -1.20015527937199 162.32575362219873 -139.13408206818204 1.9776954909186797 0 0 0
10809 3 -1.20015527937199 162.3257100015772 -140.95354850677828 3.9449999999691436 0 0 0
11090 1 1.19958649207443 160.36376564695902 -139.1616251453805 3.9449999999811713 0 0 0
61 3 -1.20015527937199 164.29438031933472 -141.35025076653153 1.9776954908950144 0 0 0
11095 1 1.19958649207443 164.29575913695797 -139.13885470051687 3.944999999961571 0 0 0
60 2 2.39969015403716 166.26500327591177 -141.0675686571121 1.9776954908904485 0 0 0
64 3 -1.20015527937199 168.23364460609284 -141.3286904871841 1.977695490853468 0 0 0
348 3 -1.20015527937199 166.26344161020597 -139.1113423709045 1.9776954909004936 0 0 0
10812 3 -1.20015527937199 166.26200914474023 -140.9314912684499 3.944999999950456 0 0 0
11100 1 1.19958649207443 168.23226127114665 -139.11607919456097 3.9449999999407486 0 0 0
63 2 2.39969015403716 170.20491274755543 -141.04548443937816 1.9776954908504418 0 0 0
67 3 -1.20015527937199 172.18104294186378 -141.30693189382046 1.9776954907804443 0 0 0
353 3 -1.20015527937199 170.2056245230197 -139.08927552092078 1.9776954908724749 0 0 0
10815 3 -1.20015527937199 170.20474563382874 -140.90954361078448 3.9449999999142364 0 0 0
11105 1 1.19958649207443 172.17500344234085 -139.09437504638743 3.9449999999241916 0 0 0
66 2 2.39969015403716 174.15407499361586 -141.02302918151506 1.977695490789362 0 0 0
358 3 -1.20015527937199 174.1548674217299 -139.06674697702084 1.977695490837487 0 0 0
10818 3 -1.20015527937199 174.156966813555 -140.88753014504104 3.9449999998431275 0 0 0
69 2 2.39969015403716 178.113160534971 -140.99920105699726 1.9776954907154414 0 0 0
70 3 -1.20015527937199 176.13891900162653 -141.28434412917053 1.9776954906616027 0 0 0
363 3 -1.20015527937199 178.11162688888254 -139.04137472545318 1.9776954908204265 0 0 0
10821 3 -1.20015527937199 178.12021585196658 -140.86317284353146 3.9449999997474023 0 0 0
11110 1 1.19958649207443 176.1253090561113 -139.0708750673168 3.9449999998569654 0 0 0
72 2 2.39969015403716 182.08114686292626 -140.97443926709167 1.9776954906891244 0 0 0
73 3 -1.20015527937199 180.10773050885243 -141.2611787487051 1.9776954904958335 0 0 0
368 3 -1.20015527937199 182.07408136705 -139.0124692644178 1.9776954909167856 0 0 0
10824 3 -1.20015527937199 182.0937951390023 -140.83730164018883 3.9449999995532243 0 0 0
11115 1 1.19958649207443 180.08278108549354 -139.04298652312278 3.9449999999516687 0 0 0
76 3 -1.20015527937199 184.0870559423277 -141.23843857340756 1.9776954903443813 0 0 0
370 1 1.19958649207443 184.04593781584379 -139.01202503974932 0.01039098213869929 0 0 0
75 2 2.39969015403716 186.05942587396368 -140.95167921844043 1.9776954909311997 0 0 0
79 3 -1.20015527937199 188.08603325250996 -141.21434975073245 1.9776954905144735 0 0 0
373 3 -1.20015527937199 186.0398127188205 -138.97890084964274 1.97769549141396 0 0 0
375 1 1.19958649207443 188.01200292766396 -138.9751282794821 0.010390983454440169 0 0 0
10827 3 -1.20015527937199 186.08119953579146 -140.80944444312595 3.944999999764934 0 0 0
78 2 2.39969015403716 190.04989328474107 -140.93779043247227 1.977695492084463 0 0 0
80 3 -1.20015527937199 190.07774162831905 -140.77551633380557 0.010390983056291367 0 0 0
82 3 -1.20015527937199 192.06513908618956 -141.25589192925503 1.977695492128132 0 0 0
378 3 -1.20015527937199 190.02539911453363 -138.9180804423571 1.9776954931418775 0 0 0
81 2 2.39969015403716 194.00896384510222 -140.94756221377145 1.977695496310566 0 0 0
83 3 -1.20015527937199 194.03872079085676 -140.7653497081578 0.010390987862101336 0 0 0
383 3 -1.20015527937199 193.95573068450182 -138.93174313495112 1.9776954985819133 0 0 0
84 2 2.39969015403716 197.4552383981923 -140.0144326527489 1.977695509190401 0 0 0
85 3 -1.20015527937199 196.04242626865295 -141.1712633873002 1.9776955004178314 0 0 0
86 3 -1.20015527937199 197.4852439965447 -140.0241994882796 0.010391000463807122 0 0 0
87 1 1.19958649207443 199.1128814081057 -142.01464939658425 0.010390992012922576 0 0 0
88 2 2.39969015403716 201.28153574747597 -140.11431628793693 1.9776955328726946 0 0 0
89 3 -1.20015527937199 199.2965050507986 -140.15118017855016 1.9776955180071933 0 0 0
91 3 -1.20015527937199 201.26447545069243 -140.1220835069242 0.010391025908491336 0 0 0
90 3 -1.20015527937199 201.13234430029027 -142.0741488241587 1.9776955103002432 0 0 0
92 1 1.19958649207443 203.18151704132396 -142.05113293450708 0.010391028709149826 0 0 0
94 3 -1.20015527937199 203.22597058944322 -140.1544175620082 1.9776955672903282 0 0 0
93 2 2.39969015403716 205.22863900838828 -140.1716184022544 1.9776956064980082 0 0 0
96 3 -1.20015527937199 205.2078861573718 -140.19148530649315 0.010391097373709862 0 0 0
99 3 -1.20015527937199 207.18108167963425 -140.2363418899642 1.9776957014969525 0 0 0
98 2 2.39969015403716 209.1854968799203 -140.26779676522494 1.9776958022762912 0 0 0
101 3 -1.20015527937199 209.1778198255342 -140.28371302972974 0.010391303084257687 0 0 0
104 3 -1.20015527937199 211.17287023682653 -140.33013628208232 1.9776960602363476 0 0 0
103 2 2.39969015403716 213.1760753831955 -140.32276398184035 1.9776963083721402 0 0 0
106 3 -1.20015527937199 213.17039325349018 -140.37634892654484 0.01039181687628274 0 0 0
109 3 -1.20015527937199 215.1715498520565 -140.3662759341593 1.9776969746229152 0 0 0
108 2 2.39969015403716 217.21631125214031 -140.34586244496842 1.9776975665651886 0 0 0
111 3 -1.20015527937199 217.2185602173693 -140.41189947650582 0.01039310848035021 0 0 0
112 1 1.19958649207443 220.3116613376146 -141.4875416335221 0.010396314445252049 0 0 0
114 3 -1.20015527937199 219.19497981375608 -140.3379827173211 1.9776993176071227 0 0 0
113 2 2.39969015403716 222.21348092577165 -139.56678701139737 1.977704017078289 0 0 0
115 3 -1.20015527937199 222.28639679217738 -141.39726105324615 1.9777056359674239 0 0 0
116 3 -1.20015527937199 221.98083956542882 -139.61646151603892 0.010399792112332088 0 0 0
117 1 1.19958649207443 224.41194794062318 -141.34591065150644 0.010404906798160382 0 0 0
119 3 -1.20015527937199 224.0303104763548 -139.34051105723523 1.9777056154288417 0 0 0
118 2 2.39969015403716 226.0344619255615 -139.21715598004823 1.9777068788494214 0 0 0
120 3 -1.20015527937199 226.19507155030288 -141.1693489284736 1.9777073917780297 0 0 0
121 3 -1.20015527937199 225.981772167732 -139.24336868368113 0.010402383058250982 0 0 0
122 1 1.19958649207443 228.23010174846067 -140.99898790582512 0.010403099612028814 0 0 0
124 3 -1.20015527937199 227.93548025166714 -139.07796027838768 1.9777096566541446 0 0 0
123 2 2.39969015403716 229.8939229986706 -138.93603495402797 1.9777119562156664 0 0 0
125 3 -1.20015527937199 230.05944297828867 -140.92042929898662 1.9777091765404426 0 0 0
126 3 -1.20015527937199 229.8658929841578 -138.9484267072361 0.010407974035864492 0 0 0
127 1 1.19958649207443 232.06258126927654 -140.68013788718704 0.010413403583415682 0 0 0
130 3 -1.20015527937199 233.9297838999389 -140.57930553462214 1.9777267639958878 0 0 0
132 1 1.19958649207443 235.84800703611094 -140.28654695551526 0.010457144225871818 0 0 0
135 3 -1.20015527937199 237.66537379642898 -140.2092332054001 1.9778134958912987 0 0 0
440 2 2.39969015403716 1.1412377153443178 -136.2744699443086 1.9778478171458325 0 0 0
441 3 -1.20015527937199 0.9248309753497965 -138.29546126281434 1.9778308759312988 0 0 0
442 3 -1.20015527937199 1.2483387454990065 -136.29839434320027 0.010534076444708239 0 0 0
443 1 1.19958649207443 2.966831345348507 -138.26526706464526 0.010652348333926821 0 0 0
445 3 -1.20015527937199 3.0338022070231956 -136.16859327192265 1.9778848416109935 0 0 0
444 2 2.39969015403716 4.9830140251463995 -136.0955526994749 1.9779719758948635 0 0 0
446 3 -1.20015527937199 4.992962616569792 -138.06772605007367 1.9780730748324915 0 0 0
447 3 -1.20015527937199 5.009777348425885 -136.0973718524504 0.0106655466207125 0 0 0
448 1 1.19958649207443 7.060671721784466 -137.84419609027856 0.010926234814149234 0 0 0
450 3 -1.20015527937199 6.970147028853161 -135.98961088892605 1.9780462078543912 0 0 0
449 2 2.39969015403716 8.96392469227967 -135.77951330997666 1.9781491904925181 0 0 0
451 3 -1.20015527937199 9.13323650083442 -137.68864216360626 1.978473188195298 0 0 0
452 3 -1.20015527937199 8.9583924293957 -135.77838575078405 0.010859074791532869 0 0 0
453 1 1.19958649207443 11.087491312077036 -137.52453246465342 0.011098677241988547 0 0 0
455 3 -1.20015527937199 10.957647820105953 -135.6381680777863 1.9781410459243143 0 0 0
456 3 -1.20015527937199 13.064560647629595 -137.44844941360185 1.9784739546477328 0 0 0
458 1 1.19958649207443 15.0045689675 -137.32540688218214 0.011035735304328931 0 0 0
461 3 -1.20015527937199 16.955706182210537 -137.2689142994235 1.9782950523638445 0 0 0
463 1 1.19958649207443 18.878225913357717 -137.1664233878176 0.010862560990473499 0 0 0
466 3 -1.20015527937199 20.813544308208403 -137.11968269922357 1.9780903115092165 0 0 0
468 1 1.19958649207443 22.730344367914796 -137.03000295695324 0.01069315079443299 0 0 0
471 3 -1.20015527937199 24.662535512353383 -136.98881459462476 1.9779317642620737 0 0 0
171 2 2.39969015403716 28.591458392469235 -138.87211088691453 1.9778700779947025 0 0 0
174 3 -1.20015527937199 28.597709596154484 -138.8700923720816 0.010566209483502119 0 0 0
473 1 1.19958649207443 26.576906984621573 -136.91054035276647 0.01056909411336192 0 0 0
476 3 -1.20015527937199 28.510684984379697 -136.8751540474589 1.9778283558531802 0 0 0
177 3 -1.20015527937199 30.51668935384088 -138.81393016596857 1.977827450161631 0 0 0
478 1 1.19958649207443 30.425426372672543 -136.80773463362837 0.010490238890929413 0 0 0
176 2 2.39969015403716 32.43473055208644 -138.77863209816098 1.9777869868103684 0 0 0
179 3 -1.20015527937199 32.44260555161221 -138.77524513890586 0.010483199687933003 0 0 0
182 3 -1.20015527937199 34.36436786761398 -138.7254388715693 1.9777643452950193 0 0 0
481 3 -1.20015527937199 32.36337007584037 -136.77836075184499 1.9777670457794034 0 0 0
483 1 1.19958649207443 34.279367501817006 -136.7195569873892 0.01044413340832763 0 0 0
181 2 2.39969015403716 36.28480228787978 -138.69625105121457 1.977742142194716 0 0 0
184 3 -1.20015527937199 36.29380026291959 -138.69156779091162 0.01043813958879167 0 0 0
187 3 -1.20015527937199 38.21965701139956 -138.64717899939888 1.9777304794950326 0 0 0
486 3 -1.20015527937199 36.22266972213999 -136.69474437314216 1.9777329094973377 0 0 0
488 1 1.19958649207443 38.139993259685795 -136.6423974528494 0.010418673702957201 0 0 0
186 2 2.39969015403716 40.14279570708034 -138.62179329681652 1.9777188285009886 0 0 0
189 3 -1.20015527937199 40.15316322336685 -138.61614262245558 0.01041461439879872 0 0 0
491 3 -1.20015527937199 40.08895742591555 -136.62057235833245 1.9777146309898934 0 0 0
192 3 -1.20015527937199 42.08340765722178 -138.57551184874677 1.9777129409290513 0 0 0
191 2 2.39969015403716 44.009325304297676 -138.55334428873223 1.9777070188163035 0 0 0
194 3 -1.20015527937199 44.02061713918488 -138.54687353104873 0.010402663706947842 0 0 0
493 1 1.19958649207443 42.00797731096786 -136.5726740415265 0.010405120280175052 0 0 0
496 3 -1.20015527937199 43.96353402593795 -136.5533360528588 1.9777051318699599 0 0 0
197 3 -1.20015527937199 45.95566551130161 -138.50963129111636 1.9777040910161072 0 0 0
196 2 2.39969015403716 47.88375510613571 -138.49012713015335 1.9777011457813864 0 0 0
199 3 -1.20015527937199 47.89646270319075 -138.4828266687522 0.010396712997457043 0 0 0
498 1 1.19958649207443 45.88323332866571 -136.50876570605118 0.010398099537345084 0 0 0
501 3 -1.20015527937199 47.84532531083408 -136.49137488833065 1.9777003006829137 0 0 0
202 3 -1.20015527937199 49.83579033334961 -138.4484722044011 1.97769970465517 0 0 0
503 1 1.19958649207443 49.76491979678548 -136.44883068462855 0.010394538573260287 0 0 0
506 3 -1.20015527937199 51.732679084707435 -136.43225467219668 1.9776978791127635 0 0 0
201 2 2.39969015403716 51.7651585307987 -138.42990601310987 1.9776982585042409 0 0 0
204 3 -1.20015527937199 51.77919797914701 -138.4219645450641 0.010393787237357191 0 0 0
207 3 -1.20015527937199 53.7221444186191 -138.38857254035605 1.9776975508242296 0 0 0
508 1 1.19958649207443 53.65036141525762 -136.3891844448353 0.010392753405495394 0 0 0
206 2 2.39969015403716 55.65140278453099 -138.36734308342997 1.9776968437843117 0 0 0
209 3 -1.20015527937199 55.66687841553553 -138.35933490850977 0.010392352959131025 0 0 0
212 3 -1.20015527937199 57.612038215093065 -138.32209074196197 1.9776964970889366 0 0 0
511 3 -1.20015527937199 55.622492514901516 -136.37101882114123 1.9776966731812544 0 0 0
513 1 1.19958649207443 57.53845911868624 -136.32594184316136 0.010391861101918939 0 0 0
211 2 2.39969015403716 59.54048300393894 -138.29886583862958 1.9776961515621028 0 0 0
214 3 -1.20015527937199 59.55812404580292 -138.29080504655803 0.010391651238852731 0 0 0
217 3 -1.20015527937199 61.505257319555646 -138.25390798532698 1.9776959814573507 0 0 0
516 3 -1.20015527937199 59.51720203984275 -136.30630808303462 1.9776960744344876 0 0 0
518 1 1.19958649207443 61.43121301336522 -136.26085458585297 0.010391416653132245 0 0 0
216 2 2.39969015403716 63.43221360614097 -138.23356645212044 1.977695812755501 0 0 0
219 3 -1.20015527937199 63.452126965942604 -138.22540758551904 0.010391308114615007 0 0 0
521 3 -1.20015527937199 63.417387375388245 -136.2439592075372 1.9776957776400985 0 0 0
221 2 2.39969015403716 67.32441917929094 -138.17697825525792 1.9776956477443552 0 0 0
222 3 -1.20015527937199 65.40101841642566 -138.19444575288168 1.9776957297033009 0 0 0
224 3 -1.20015527937199 67.3468479021405 -138.16939649141042 0.010391140727741272 0 0 0
523 1 1.19958649207443 65.326411741476 -136.20003604467325 0.010391196499238633 0 0 0
526 3 -1.20015527937199 67.31755767379279 -136.1880608274603 1.9776956316424823 0 0 0
226 2 2.39969015403716 71.21333649412252 -138.1234419919928 1.977695567494949 0 0 0
227 3 -1.20015527937199 69.29551078451154 -138.1415538601502 1.9776956072993346 0 0 0
229 3 -1.20015527937199 71.2385123074977 -138.11711178185982 0.010391059267649487 0 0 0
528 1 1.19958649207443 69.21932452485011 -136.14427499732204 0.01039108771640806 0 0 0
531 3 -1.20015527937199 71.21469678830944 -136.13479127942892 1.977695560050269 0 0 0
232 3 -1.20015527937199 73.18524297241352 -138.0882190958321 1.97769554778676 0 0 0
533 1 1.19958649207443 73.10629366332427 -136.08825347947027 0.010391034225395253 0 0 0
231 2 2.39969015403716 75.095817034708 -138.06628196195757 1.9776955283613449 0 0 0
234 3 -1.20015527937199 75.12377564318696 -138.06198893272997 0.010391019544294514 0 0 0
237 3 -1.20015527937199 77.06695793164734 -138.03207378648344 1.9776955186242366 0 0 0
536 3 -1.20015527937199 75.10706880528224 -136.0805405609169 1.9776955248807355 0 0 0
538 1 1.19958649207443 76.98850451784014 -136.03092961853378 0.010391007820030487 0 0 0
236 2 2.39969015403716 78.96512234330292 -138.01307924148813 1.977695509067601 0 0 0
239 3 -1.20015527937199 78.99732697003566 -138.01327398205584 0.010391000057462251 0 0 0
242 3 -1.20015527937199 80.93187213794758 -137.99048707572717 1.9776955041105404 0 0 0
541 3 -1.20015527937199 78.99893863076136 -136.03166973007524 1.9776955074370606 0 0 0
543 1 1.19958649207443 80.8625484609179 -135.9766452917518 0.010390994410844161 0 0 0
241 2 2.39969015403716 82.81315153848786 -137.95347994727538 1.977695499053018 0 0 0
244 3 -1.20015527937199 82.84885212338011 -137.96651290258458 0.010390990179133567 0 0 0
546 3 -1.20015527937199 82.87744050038425 -136.0065874770028 1.9776954986029662 0 0 0
246 2 2.39969015403716 86.6755689713993 -138.00968846381878 1.9776954941259264 0 0 0
247 3 -1.20015527937199 84.79426552226043 -137.957528122109 1.9776954966495461 0 0 0
249 3 -1.20015527937199 86.7088362278029 -138.11494290425102 0.010390985157889951 0 0 0
548 1 1.19958649207443 84.76873999905841 -135.96555802885396 0.010390987582108869 0 0 0
551 3 -1.20015527937199 86.82984542184202 -136.1002156250127 1.9776954940876343 0 0 0
252 3 -1.20015527937199 88.60826306385718 -138.21016635116854 1.977695493256059 0 0 0
553 1 1.19958649207443 88.71368559044882 -136.08764195394082 0.010390984229435822 0 0 0
251 2 2.39969015403716 90.54543165100883 -138.22562146954286 1.9776954921845364 0 0 0
254 3 -1.20015527937199 90.56674285611955 -138.25730303657502 0.010390983181413835 0 0 0
556 3 -1.20015527937199 90.66626424709581 -136.25502846959895 1.9776954923110646 0 0 0
257 3 -1.20015527937199 92.51670869504612 -138.31111073314568 1.9776954918596892 0 0 0
558 1 1.19958649207443 92.58785833785326 -136.25980742433347 0.010390982889806704 0 0 0
256 2 2.39969015403716 94.43118800288225 -138.36861702618427 1.977695491448555 0 0 0
259 3 -1.20015527937199 94.49711646967461 -138.3820961774389 0.010390982418379316 0 0 0
262 3 -1.20015527937199 96.4543173935863 -138.43749759261087 1.9776954913307037 0 0 0
561 3 -1.20015527937199 94.61402462647327 -136.37054214074038 1.9776954915174534 0 0 0
563 1 1.19958649207443 96.55150404251269 -136.35142878896528 0.010390982355538252 0 0 0