LAMMPS data file via write_data, version 19 Nov 2024, timestep = 0, units =.1 metal
              
13898 atoms             
3 atom types            
              
0 237.520453066678 xlo xhi           
-47.5040906133356 47.5040906133356 ylo yhi           
0 7.89 zlo zhi           
              
Masses              
              
1 87.62             
2 47.867             
3 15.999             
              
Atoms # charge            
              
1 1 1.19979288919572 237.49208680805123 114.44727278345067 3.945 0 0 0      
2 2 2.39984504222704 121.16691648621202 24.05650655998275 1.9725 0 0 0      
3 3 -1.20007787218032 119.1947184559176 24.021993094452597 1.9725 0 0 0      
4 3 -1.20007787218032 121.16691648621202 24.05650655998275 0.0 0 0 0      
5 2 2.39984504222704 125.11131254680078 24.125533491043058 1.9725 0 0 0      
6 3 -1.20007787218032 123.13911451650642 24.091020025512904 1.9725 0 0 0      
7 3 -1.20007787218032 125.11131254680078 24.125533491043058 0.0 0 0 0      
8 2 2.39984504222704 129.05570860738965 24.194560422103336 1.9725 0 0 0      
9 3 -1.20007787218032 127.08351057709518 24.16004695657321 1.9725 0 0 0      
10 3 -1.20007787218032 129.05570860738965 24.194560422103336 0.0 0 0 0      
11 2 2.39984504222704 133.0001046679784 24.263587353163672 1.9725 0 0 0      
12 3 -1.20007787218032 131.027906637684 24.22907388763352 1.9725 0 0 0      
13 3 -1.20007787218032 133.0001046679784 24.263587353163672 0.0 0 0 0      
14 2 2.39984504222704 136.94450072856716 24.33261428422395 1.9725 0 0 0      
15 3 -1.20007787218032 134.97230269827276 24.298100818693825 1.9725 0 0 0      
16 3 -1.20007787218032 136.94450072856716 24.33261428422395 0.0 0 0 0      
17 2 2.39984504222704 140.88889678915598 24.401641215284258 1.9725 0 0 0      
18 3 -1.20007787218032 138.91669875886157 24.367127749754133 1.9725 0 0 0      
19 3 -1.20007787218032 140.88889678915598 24.401641215284258 0.0 0 0 0      
20 2 2.39984504222704 144.8332928497448 24.470668146344565 1.9725 0 0 0      
21 3 -1.20007787218032 142.8610948194504 24.43615468081441 1.9725 0 0 0      
22 3 -1.20007787218032 144.8332928497448 24.470668146344565 0.0 0 0 0      
23 2 2.39984504222704 148.7776889103336 24.539695077404872 1.9725 0 0 0      
24 3 -1.20007787218032 146.8054908800392 24.50518161187472 1.9725 0 0 0      
25 3 -1.20007787218032 148.7776889103336 24.539695077404872 0.0 0 0 0      
26 2 2.39984504222704 152.72208497092237 24.60872200846518 1.9725 0 0 0      
27 3 -1.20007787218032 150.74988694062796 24.574208542935025 1.9725 0 0 0      
28 3 -1.20007787218032 152.72208497092237 24.60872200846518 0.0 0 0 0      
29 2 2.39984504222704 156.66648103151113 24.677748939525486 1.9725 0 0 0      
30 3 -1.20007787218032 154.69428300121672 24.643235473995333 1.9725 0 0 0      
31 3 -1.20007787218032 156.66648103151113 24.677748939525486 0.0 0 0 0      
32 2 2.39984504222704 160.61087709209994 24.746775870585793 1.9725 0 0 0      
33 3 -1.20007787218032 158.63867906180553 24.71226240505564 1.9725 0 0 0      
34 3 -1.20007787218032 160.61087709209994 24.746775870585793 0.0 0 0 0      
35 2 2.39984504222704 164.55527315268876 24.8158028016461 1.9725 0 0 0      
36 3 -1.20007787218032 162.58307512239435 24.781289336115947 1.9725 0 0 0      
37 3 -1.20007787218032 164.55527315268876 24.8158028016461 0.0 0 0 0      
38 2 2.39984504222704 168.49966921327757 24.884829732706407 1.9725 0 0 0      
39 3 -1.20007787218032 166.52747118298316 24.850316267176254 1.9725 0 0 0      
40 3 -1.20007787218032 168.49966921327757 24.884829732706407 0.0 0 0 0      
41 2 2.39984504222704 172.44406527386633 24.953856663766715 1.9725 0 0 0      
42 3 -1.20007787218032 170.47186724357192 24.91934319823656 1.9725 0 0 0      
43 3 -1.20007787218032 172.44406527386633 24.953856663766715 0.0 0 0 0      
44 2 2.39984504222704 176.3884613344551 25.022883594826993 1.9725 0 0 0      
45 3 -1.20007787218032 174.41626330416068 24.988370129296868 1.9725 0 0 0      
46 3 -1.20007787218032 176.3884613344551 25.022883594826993 0.0 0 0 0      
47 2 2.39984504222704 180.3328573950439 25.0919105258873 1.9725 0 0 0      
48 3 -1.20007787218032 178.3606593647495 25.057397060357175 1.9725 0 0 0      
49 3 -1.20007787218032 180.3328573950439 25.0919105258873 0.0 0 0 0      
50 2 2.39984504222704 184.27725345563272 25.160937456947607 1.9725 0 0 0      
51 3 -1.20007787218032 182.3050554253383 25.126423991417454 1.9725 0 0 0      
52 3 -1.20007787218032 184.27725345563272 25.160937456947607 0.0 0 0 0      
53 2 2.39984504222704 188.22164951622156 25.229964388007915 1.9725 0 0 0      
54 3 -1.20007787218032 186.24945148592712 25.19545092247776 1.9725 0 0 0      
55 3 -1.20007787218032 188.22164951622156 25.229964388007915 0.0 0 0 0      
56 2 2.39984504222704 192.1660455768103 25.29899131906822 1.9725 0 0 0      
57 3 -1.20007787218032 190.19384754651588 25.264477853538068 1.9725 0 0 0      
58 3 -1.20007787218032 192.1660455768103 25.29899131906822 0.0 0 0 0      
59 2 2.39984504222704 196.1104416373991 25.36801825012853 1.9725 0 0 0      
60 3 -1.20007787218032 194.13824360710464 25.333504784598375 1.9725 0 0 0      
61 3 -1.20007787218032 196.1104416373991 25.36801825012853 0.0 0 0 0      
62 2 2.39984504222704 200.05483769798784 25.437045181188836 1.9725 0 0 0      
63 3 -1.20007787218032 198.08263966769343 25.402531715658682 1.9725 0 0 0      
64 3 -1.20007787218032 200.05483769798784 25.437045181188836 0.0 0 0 0      
65 2 2.39984504222704 203.99923375857668 25.506072112249143 1.9725 0 0 0      
66 3 -1.20007787218032 202.02703572828227 25.47155864671899 1.9725 0 0 0      
67 3 -1.20007787218032 203.99923375857668 25.506072112249143 0.0 0 0 0      
68 2 2.39984504222704 207.9436298191655 25.57509904330942 1.9725 0 0 0      
69 3 -1.20007787218032 205.9714317888711 25.540585577779268 1.9725 0 0 0      
70 3 -1.20007787218032 207.9436298191655 25.57509904330942 0.0 0 0 0      
71 2 2.39984504222704 211.8880258797543 25.64412597436973 1.9725 0 0 0      
72 3 -1.20007787218032 209.91582784945984 25.609612508839575 1.9725 0 0 0      
73 3 -1.20007787218032 211.8880258797543 25.64412597436973 0.0 0 0 0      
74 2 2.39984504222704 215.83242194034307 25.713152905430036 1.9725 0 0 0      
75 3 -1.20007787218032 213.86022391004863 25.678639439899882 1.9725 0 0 0      
76 3 -1.20007787218032 215.83242194034307 25.713152905430036 0.0 0 0 0      
77 3 -1.20007787218032 235.55440224328703 116.45398427927523 3.945 0 0 0      
78 2 2.39984504222704 219.77681800093185 25.782179836490343 1.9725 0 0 0      
79 3 -1.20007787218032 217.80461997063745 25.74766637096019 1.9725 0 0 0      
80 3 -1.20007787218032 235.51988877775688 114.48178624898088 5.917499999999999 0 0 0      
81 3 -1.20007787218032 219.77681800093185 25.782179836490343 0.0 0 0 0      
82 3 -1.20007787218032 233.58220421299265 116.48849774480539 5.917499999999999 0 0 0      
83 2 2.39984504222704 223.72121406152064 25.85120676755065 1.9725 0 0 0      
84 3 -1.20007787218032 221.74901603122623 25.816693302020497 1.9725 0 0 0      
85 2 2.39984504222704 235.55440224328703 116.45398427927523 5.917499999999999 0 0 0      
86 3 -1.20007787218032 223.72121406152064 25.85120676755065 0.0 0 0 0      
87 1 1.19979288919572 233.54769074746247 114.51629971451104 3.945 0 0 0      
88 2 2.39984504222704 227.66561012210943 25.920233698610957 1.9725 0 0 0      
89 3 -1.20007787218032 225.69341209181505 25.885720233080804 1.9725 0 0 0      
90 3 -1.20007787218032 231.61000618269824 116.52301121033554 3.945 0 0 0      
91 3 -1.20007787218032 227.66561012210943 25.920233698610957 0.0 0 0 0      
92 3 -1.20007787218032 231.5754927171681 114.55081318004119 5.917499999999999 0 0 0      
93 2 2.39984504222704 231.61000618269824 25.989260629671264 1.9725 0 0 0      
94 3 -1.20007787218032 229.63780815240384 25.95474716414111 1.9725 0 0 0      
95 3 -1.20007787218032 231.6445196482284 24.017062599376857 1.9725 0 0 0      
96 3 -1.20007787218032 231.61000618269824 25.989260629671264 0.0 0 0 0      
97 1 1.19979288919572 233.6167176785228 24.05157606490701 0.0 0 0 0      
98 2 2.39984504222704 235.55440224328703 26.05828756073157 1.9725 0 0 0      
99 3 -1.20007787218032 233.58220421299265 26.023774095201418 1.9725 0 0 0      
100 3 -1.20007787218032 235.5889157088172 24.086089530437164 1.9725 0 0 0      
101 3 -1.20007787218032 235.55440224328703 26.05828756073157 0.0 0 0 0      
102 3 -1.20007787218032 229.63780815240384 116.5575246758657 5.917499999999999 0 0 0      
103 2 2.39984504222704 2.7660077374878824 25.930094688762438 1.9725 0 0 0      
104 3 -1.20007787218032 0.7938097071934749 25.895581223232284 1.9725 0 0 0      
105 2 2.39984504222704 231.61000618269824 116.52301121033554 5.917499999999999 0 0 0      
106 3 -1.20007787218032 2.7660077374878824 25.930094688762438 0.0 0 0 0      
107 1 1.19979288919572 229.60329468687368 114.58532664557129 3.945 0 0 0      
108 2 2.39984504222704 6.7104037980766975 25.999121619822745 1.9725 0 0 0      
109 3 -1.20007787218032 4.73820576778229 25.96460815429259 1.9725 0 0 0      
110 3 -1.20007787218032 6.744917263606851 24.026923589528337 1.9725 0 0 0      
111 3 -1.20007787218032 6.7104037980766975 25.999121619822745 0.0 0 0 0      
112 1 1.19979288919572 8.717115293901259 24.06143705505849 0.0 0 0 0      
113 2 2.39984504222704 10.654799858665456 26.068148550883024 1.9725 0 0 0      
114 3 -1.20007787218032 8.682601828371105 26.0336350853529 1.9725 0 0 0      
115 3 -1.20007787218032 10.68931332419561 24.095950520588644 1.9725 0 0 0      
116 3 -1.20007787218032 10.654799858665456 26.068148550883024 0.0 0 0 0      
117 1 1.19979288919572 12.661511354490017 24.130463986118798 0.0 0 0 0      
118 2 2.39984504222704 14.59919591925427 26.13717548194333 1.9725 0 0 0      
119 3 -1.20007787218032 12.626997888959863 26.102662016413205 1.9725 0 0 0      
120 3 -1.20007787218032 14.633709384784424 24.16497745164895 1.9725 0 0 0      
121 3 -1.20007787218032 14.59919591925427 26.13717548194333 0.0 0 0 0      
122 1 1.19979288919572 16.605907415078832 24.199490917179105 0.0 0 0 0      
123 2 2.39984504222704 18.54359197984309 26.206202413003638 1.9725 0 0 0      
124 3 -1.20007787218032 16.57139394954868 26.171688947473484 1.9725 0 0 0      
125 3 -1.20007787218032 18.57810544537324 24.23400438270926 1.9725 0 0 0      
126 3 -1.20007787218032 18.54359197984309 26.206202413003638 0.0 0 0 0      
127 1 1.19979288919572 20.55030347566759 24.268517848239412 0.0 0 0 0      
128 2 2.39984504222704 22.487988040431844 26.275229344063945 1.9725 0 0 0      
129 3 -1.20007787218032 20.51579001013744 26.24071587853379 1.9725 0 0 0      
130 3 -1.20007787218032 22.522501505962 24.303031313769566 1.9725 0 0 0      
131 3 -1.20007787218032 22.487988040431844 26.275229344063945 0.0 0 0 0      
132 1 1.19979288919572 24.494699536256405 24.33754477929972 0.0 0 0 0      
133 2 2.39984504222704 26.43238410102066 26.344256275124252 1.9725 0 0 0      
134 3 -1.20007787218032 24.46018607072625 26.3097428095941 1.9725 0 0 0      
135 3 -1.20007787218032 26.466897566550813 24.372058244829873 1.9725 0 0 0      
136 3 -1.20007787218032 26.43238410102066 26.344256275124252 0.0 0 0 0      
137 1 1.19979288919572 28.43909559684522 24.406571710360026 0.0 0 0 0      
138 2 2.39984504222704 30.376780161609418 26.41328320618456 1.9725 0 0 0      
139 3 -1.20007787218032 28.404582131315067 26.378769740654405 1.9725 0 0 0      
140 3 -1.20007787218032 30.41129362713957 24.44108517589015 1.9725 0 0 0      
141 3 -1.20007787218032 30.376780161609418 26.41328320618456 0.0 0 0 0      
142 1 1.19979288919572 32.38349165743398 24.475598641420305 0.0 0 0 0      
143 2 2.39984504222704 34.32117622219823 26.482310137244866 1.9725 0 0 0      
144 3 -1.20007787218032 32.348978191903825 26.447796671714713 1.9725 0 0 0      
145 3 -1.20007787218032 34.355689687728386 24.51011210695046 1.9725 0 0 0      
146 3 -1.20007787218032 34.32117622219823 26.482310137244866 0.0 0 0 0      
147 1 1.19979288919572 36.3278877180228 24.544625572480612 0.0 0 0 0      
148 2 2.39984504222704 38.26557228278705 26.551337068305145 1.9725 0 0 0      
149 3 -1.20007787218032 36.29337425249264 26.51682360277502 1.9725 0 0 0      
150 3 -1.20007787218032 38.3000857483172 24.579139038010766 1.9725 0 0 0      
151 3 -1.20007787218032 38.26557228278705 26.551337068305145 0.0 0 0 0      
152 1 1.19979288919572 40.27228377861161 24.61365250354092 0.0 0 0 0      
153 2 2.39984504222704 42.209968343375806 26.620363999365452 1.9725 0 0 0      
154 3 -1.20007787218032 40.237770313081455 26.5858505338353 1.9725 0 0 0      
155 3 -1.20007787218032 42.24448180890596 24.648165969071073 1.9725 0 0 0      
156 3 -1.20007787218032 42.209968343375806 26.620363999365452 0.0 0 0 0      
157 1 1.19979288919572 44.21667983920037 24.682679434601226 0.0 0 0 0      
158 2 2.39984504222704 46.15436440396462 26.68939093042576 1.9725 0 0 0      
159 3 -1.20007787218032 44.18216637367021 26.654877464895605 1.9725 0 0 0      
160 3 -1.20007787218032 46.188877869494775 24.71719290013138 1.9725 0 0 0      
161 3 -1.20007787218032 46.15436440396462 26.68939093042576 0.0 0 0 0      
162 1 1.19979288919572 48.16107589978918 24.751706365661533 0.0 0 0 0      
163 2 2.39984504222704 50.09876046455344 26.758417861486066 1.9725 0 0 0      
164 3 -1.20007787218032 48.12656243425903 26.723904395955913 1.9725 0 0 0      
165 3 -1.20007787218032 50.13327393008359 24.786219831191687 1.9725 0 0 0      
166 3 -1.20007787218032 50.09876046455344 26.758417861486066 0.0 0 0 0      
167 1 1.19979288919572 52.10547196037794 24.82073329672184 0.0 0 0 0      
168 2 2.39984504222704 54.043156525142194 26.827444792546373 1.9725 0 0 0      
169 3 -1.20007787218032 52.07095849484779 26.79293132701622 1.9725 0 0 0      
170 3 -1.20007787218032 54.07766999067235 24.855246762251994 1.9725 0 0 0      
171 3 -1.20007787218032 54.043156525142194 26.827444792546373 0.0 0 0 0      
172 1 1.19979288919572 56.04986802096676 24.889760227782148 0.0 0 0 0      
173 2 2.39984504222704 57.98755258573101 26.89647172360668 1.9725 0 0 0      
174 3 -1.20007787218032 56.0153545554366 26.861958258076527 1.9725 0 0 0      
175 3 -1.20007787218032 58.02206605126116 24.924273693312273 1.9725 0 0 0      
176 3 -1.20007787218032 57.98755258573101 26.89647172360668 0.0 0 0 0      
177 1 1.19979288919572 59.99426408155557 24.958787158842426 0.0 0 0 0      
178 2 2.39984504222704 61.93194864631983 26.965498654666987 1.9725 0 0 0      
179 3 -1.20007787218032 59.95975061602542 26.930985189136834 1.9725 0 0 0      
180 3 -1.20007787218032 61.96646211184998 24.99330062437258 1.9725 0 0 0      
181 3 -1.20007787218032 61.93194864631983 26.965498654666987 0.0 0 0 0      
182 1 1.19979288919572 63.93866014214433 25.027814089902733 0.0 0 0 0      
183 2 2.39984504222704 65.87634470690858 27.034525585727295 1.9725 0 0 0      
184 3 -1.20007787218032 63.904146676614175 27.00001212019714 1.9725 0 0 0      
185 3 -1.20007787218032 65.91085817243874 25.062327555432887 1.9725 0 0 0      
186 3 -1.20007787218032 65.87634470690858 27.034525585727295 0.0 0 0 0      
187 1 1.19979288919572 67.88305620273314 25.09684102096304 0.0 0 0 0      
188 2 2.39984504222704 69.82074076749734 27.1035525167876 1.9725 0 0 0      
189 3 -1.20007787218032 67.84854273720299 27.069039051257448 1.9725 0 0 0      
190 3 -1.20007787218032 69.8552542330275 25.131354486493194 1.9725 0 0 0      
191 3 -1.20007787218032 69.82074076749734 27.1035525167876 0.0 0 0 0      
192 1 1.19979288919572 71.8274522633219 25.165867952023348 0.0 0 0 0      
193 2 2.39984504222704 73.76513682808616 27.17257944784791 1.9725 0 0 0      
194 3 -1.20007787218032 71.79293879779175 27.138065982317755 1.9725 0 0 0      
195 3 -1.20007787218032 73.79965029361631 25.2003814175535 1.9725 0 0 0      
196 3 -1.20007787218032 73.76513682808616 27.17257944784791 0.0 0 0 0      
197 1 1.19979288919572 75.77184832391072 25.234894883083655 0.0 0 0 0      
198 2 2.39984504222704 77.70953288867497 27.241606378908216 1.9725 0 0 0      
199 3 -1.20007787218032 75.73733485838056 27.207092913378034 1.9725 0 0 0      
200 3 -1.20007787218032 77.74404635420512 25.26940834861381 1.9725 0 0 0      
201 3 -1.20007787218032 77.70953288867497 27.241606378908216 0.0 0 0 0      
202 1 1.19979288919572 79.71624438449953 25.303921814143962 0.0 0 0 0      
203 2 2.39984504222704 81.65392894926379 27.310633309968523 1.9725 0 0 0      
204 3 -1.20007787218032 79.68173091896938 27.27611984443837 1.9725 0 0 0      
205 3 -1.20007787218032 81.68844241479394 25.338435279674115 1.9725 0 0 0      
206 3 -1.20007787218032 81.65392894926379 27.310633309968523 0.0 0 0 0      
207 1 1.19979288919572 83.66064044508829 25.37294874520427 0.0 0 0 0      
208 2 2.39984504222704 85.59832500985254 27.3796602410288 1.9725 0 0 0      
209 3 -1.20007787218032 83.62612697955814 27.345146775498677 1.9725 0 0 0      
210 3 -1.20007787218032 85.6328384753827 25.407462210734423 1.9725 0 0 0      
211 3 -1.20007787218032 85.59832500985254 27.3796602410288 0.0 0 0 0      
212 1 1.19979288919572 87.6050365056771 25.441975676264576 0.0 0 0 0      
213 2 2.39984504222704 89.54272107044136 27.44868717208911 1.9725 0 0 0      
214 3 -1.20007787218032 87.57052304014695 27.414173706558955 1.9725 0 0 0      
215 3 -1.20007787218032 89.57723453597151 25.47648914179473 1.9725 0 0 0      
216 3 -1.20007787218032 89.54272107044136 27.44868717208911 0.0 0 0 0      
217 1 1.19979288919572 91.54943256626586 25.511002607324883 0.0 0 0 0      
218 2 2.39984504222704 93.48711713103012 27.517714103149416 1.9725 0 0 0      
219 3 -1.20007787218032 91.51491910073572 27.483200637619262 1.9725 0 0 0      
220 3 -1.20007787218032 93.52163059656029 25.545516072855037 1.9725 0 0 0      
221 3 -1.20007787218032 93.48711713103012 27.517714103149416 0.0 0 0 0      
222 1 1.19979288919572 95.49382862685468 25.580029538385162 0.0 0 0 0      
223 2 2.39984504222704 97.43151319161892 27.586741034209723 1.9725 0 0 0      
224 3 -1.20007787218032 95.45931516132453 27.55222756867957 1.9725 0 0 0      
225 3 -1.20007787218032 97.46602665714909 25.614543003915344 1.9725 0 0 0      
226 3 -1.20007787218032 97.43151319161892 27.586741034209723 0.0 0 0 0      
227 1 1.19979288919572 99.4382246874435 25.649056469445497 0.0 0 0 0      
228 2 2.39984504222704 101.37590925220776 27.65576796527003 1.9725 0 0 0      
229 3 -1.20007787218032 99.40371122191334 27.621254499739877 1.9725 0 0 0      
230 3 -1.20007787218032 101.4104227177379 25.683569934975623 1.9725 0 0 0      
231 3 -1.20007787218032 101.37590925220776 27.65576796527003 0.0 0 0 0      
232 1 1.19979288919572 103.38262074803224 25.718083400505776 0.0 0 0 0      
233 2 2.39984504222704 105.3203053127965 27.724794896330337 1.9725 0 0 0      
234 3 -1.20007787218032 103.3481072825021 27.690281430800184 1.9725 0 0 0      
235 3 -1.20007787218032 105.35481877832666 25.75259686603593 1.9725 0 0 0      
236 3 -1.20007787218032 105.3203053127965 27.724794896330337 0.0 0 0 0      
237 1 1.19979288919572 107.32701680862108 25.787110331566083 0.0 0 0 0      
238 2 2.39984504222704 109.26470137338532 27.793821827390644 1.9725 0 0 0      
239 3 -1.20007787218032 107.29250334309091 27.75930836186049 1.9725 0 0 0      
240 3 -1.20007787218032 109.29921483891547 25.821623797096237 1.9725 0 0 0      
241 3 -1.20007787218032 109.26470137338532 27.793821827390644 0.0 0 0 0      
242 1 1.19979288919572 111.27141286920984 25.85613726262639 0.0 0 0 0      
243 2 2.39984504222704 113.20909743397408 27.862848758450923 1.9725 0 0 0      
244 3 -1.20007787218032 111.23689940367969 27.82833529292077 1.9725 0 0 0      
245 3 -1.20007787218032 113.24361089950423 25.890650728156544 1.9725 0 0 0      
246 3 -1.20007787218032 113.20909743397408 27.862848758450923 0.0 0 0 0      
247 1 1.19979288919572 115.21580892979864 25.925164193686697 0.0 0 0 0      
248 2 2.39984504222704 117.1534934945629 27.93187568951123 1.9725 0 0 0      
249 3 -1.20007787218032 115.18129546426847 27.897362223981077 1.9725 0 0 0      
250 3 -1.20007787218032 117.18800696009303 25.95967765921685 1.9725 0 0 0      
251 3 -1.20007787218032 117.1534934945629 27.93187568951123 0.0 0 0 0      
252 1 1.19979288919572 119.16020499038746 25.994191124747005 0.0 0 0 0      
253 2 2.39984504222704 121.09788955515172 28.000902620571537 1.9725 0 0 0      
254 3 -1.20007787218032 119.1256915248573 27.966389155041384 1.9725 0 0 0      
255 3 -1.20007787218032 121.13240302068186 26.028704590277158 1.9725 0 0 0      
256 3 -1.20007787218032 121.09788955515172 28.000902620571537 0.0 0 0 0      
257 1 1.19979288919572 123.10460105097629 26.06321805580731 0.0 0 0 0      
258 2 2.39984504222704 125.04228561574048 28.069929551631844 1.9725 0 0 0      
259 3 -1.20007787218032 123.07008758544612 28.03541608610169 1.9725 0 0 0      
260 3 -1.20007787218032 125.07679908127062 26.097731521337465 1.9725 0 0 0      
261 3 -1.20007787218032 125.04228561574048 28.069929551631844 0.0 0 0 0      
262 1 1.19979288919572 127.04899711156504 26.13224498686759 0.0 0 0 0      
263 2 2.39984504222704 128.98668167632934 28.13895648269215 1.9725 0 0 0      
264 3 -1.20007787218032 127.01448364603488 28.104443017161998 1.9725 0 0 0      
265 3 -1.20007787218032 129.0211951418595 26.166758452397744 1.9725 0 0 0      
266 3 -1.20007787218032 128.98668167632934 28.13895648269215 0.0 0 0 0      
267 1 1.19979288919572 130.99339317215384 26.201271917927897 0.0 0 0 0      
268 2 2.39984504222704 132.9310777369181 28.20798341375246 1.9725 0 0 0      
269 3 -1.20007787218032 130.9588797066237 28.173469948222305 1.9725 0 0 0      
270 3 -1.20007787218032 132.96559120244825 26.23578538345805 1.9725 0 0 0      
271 3 -1.20007787218032 132.9310777369181 28.20798341375246 0.0 0 0 0      
272 1 1.19979288919572 134.9377892327426 26.270298848988205 0.0 0 0 0      
273 2 2.39984504222704 136.87547379750686 28.277010344812766 1.9725 0 0 0      
274 3 -1.20007787218032 134.90327576721245 28.242496879282612 1.9725 0 0 0      
275 3 -1.20007787218032 136.909987263037 26.304812314518358 1.9725 0 0 0      
276 3 -1.20007787218032 136.87547379750686 28.277010344812766 0.0 0 0 0      
277 1 1.19979288919572 138.88218529333142 26.33932578004851 0.0 0 0 0      
278 2 2.39984504222704 140.81986985809567 28.346037275873073 1.9725 0 0 0      
279 3 -1.20007787218032 138.84767182780126 28.31152381034292 1.9725 0 0 0      
280 3 -1.20007787218032 140.85438332362585 26.373839245578665 1.9725 0 0 0      
281 3 -1.20007787218032 140.81986985809567 28.346037275873073 0.0 0 0 0      
282 1 1.19979288919572 142.82658135392023 26.40835271110882 0.0 0 0 0      
283 2 2.39984504222704 144.7642659186845 28.41506420693335 1.9725 0 0 0      
284 3 -1.20007787218032 142.79206788839008 28.380550741403226 1.9725 0 0 0      
285 3 -1.20007787218032 144.79877938421464 26.442866176638972 1.9725 0 0 0      
286 3 -1.20007787218032 144.7642659186845 28.41506420693335 0.0 0 0 0      
287 1 1.19979288919572 146.77097741450905 26.477379642169126 0.0 0 0 0      
288 2 2.39984504222704 148.7086619792733 28.484091137993687 1.9725 0 0 0      
289 3 -1.20007787218032 146.7364639489789 28.449577672463533 1.9725 0 0 0      
290 3 -1.20007787218032 148.74317544480346 26.51189310769928 1.9725 0 0 0      
291 3 -1.20007787218032 148.7086619792733 28.484091137993687 0.0 0 0 0      
292 1 1.19979288919572 150.7153734750978 26.546406573229433 0.0 0 0 0      
293 2 2.39984504222704 152.65305803986206 28.553118069053994 1.9725 0 0 0      
294 3 -1.20007787218032 150.68086000956765 28.51860460352384 1.9725 0 0 0      
295 3 -1.20007787218032 152.6875715053922 26.580920038759587 1.9725 0 0 0      
296 3 -1.20007787218032 152.65305803986206 28.553118069053994 0.0 0 0 0      
297 1 1.19979288919572 154.65976953568656 26.61543350428974 0.0 0 0 0      
298 2 2.39984504222704 156.59745410045082 28.622145000114273 1.9725 0 0 0      
299 3 -1.20007787218032 154.6252560701564 28.58763153458412 1.9725 0 0 0      
300 3 -1.20007787218032 156.63196756598097 26.649946969819894 1.9725 0 0 0      
301 3 -1.20007787218032 156.59745410045082 28.622145000114273 0.0 0 0 0      
302 1 1.19979288919572 158.60416559627538 26.684460435350047 0.0 0 0 0      
303 2 2.39984504222704 160.54185016103963 28.69117193117458 1.9725 0 0 0      
304 3 -1.20007787218032 158.56965213074523 28.656658465644426 1.9725 0 0 0      
305 3 -1.20007787218032 160.5763636265698 26.7189739008802 1.9725 0 0 0      
306 3 -1.20007787218032 160.54185016103963 28.69117193117458 0.0 0 0 0      
307 1 1.19979288919572 162.5485616568642 26.753487366410354 0.0 0 0 0      
308 2 2.39984504222704 164.48624622162845 28.760198862234887 1.9725 0 0 0      
309 3 -1.20007787218032 162.51404819133404 28.725685396704733 1.9725 0 0 0      
310 3 -1.20007787218032 164.5207596871586 26.788000831940508 1.9725 0 0 0      
311 3 -1.20007787218032 164.48624622162845 28.760198862234887 0.0 0 0 0      
312 1 1.19979288919572 166.492957717453 26.822514297470633 0.0 0 0 0      
313 2 2.39984504222704 168.43064228221726 28.829225793295194 1.9725 0 0 0      
314 3 -1.20007787218032 166.45844425192286 28.79471232776504 1.9725 0 0 0      
315 3 -1.20007787218032 168.46515574774742 26.857027763000815 1.9725 0 0 0      
316 3 -1.20007787218032 168.43064228221726 28.829225793295194 0.0 0 0 0      
317 1 1.19979288919572 170.43735377804177 26.89154122853097 0.0 0 0 0      
318 2 2.39984504222704 172.37503834280602 28.8982527243555 1.9725 0 0 0      
319 3 -1.20007787218032 170.4028403125116 28.863739258825348 1.9725 0 0 0      
320 3 -1.20007787218032 172.40955180833618 26.926054694061094 1.9725 0 0 0      
321 3 -1.20007787218032 172.37503834280602 28.8982527243555 0.0 0 0 0      
322 1 1.19979288919572 174.38174983863053 26.960568159591247 0.0 0 0 0      
323 2 2.39984504222704 176.31943440339478 28.96727965541581 1.9725 0 0 0      
324 3 -1.20007787218032 174.34723637310037 28.932766189885626 1.9725 0 0 0      
325 3 -1.20007787218032 176.35394786892493 26.9950816251214 1.9725 0 0 0      
326 3 -1.20007787218032 176.31943440339478 28.96727965541581 0.0 0 0 0      
327 1 1.19979288919572 178.32614589921934 27.029595090651554 0.0 0 0 0      
328 2 2.39984504222704 180.2638304639836 29.036306586476087 1.9725 0 0 0      
329 3 -1.20007787218032 178.2916324336892 29.001793120945962 1.9725 0 0 0      
330 3 -1.20007787218032 180.29834392951372 27.064108556181708 1.9725 0 0 0      
331 3 -1.20007787218032 180.2638304639836 29.036306586476087 0.0 0 0 0      
332 1 1.19979288919572 182.27054195980816 27.09862202171186 0.0 0 0 0      
333 2 2.39984504222704 184.2082265245724 29.105333517536394 1.9725 0 0 0      
334 3 -1.20007787218032 182.236028494278 29.07082005200624 1.9725 0 0 0      
335 3 -1.20007787218032 184.24273999010256 27.133135487242015 1.9725 0 0 0      
336 3 -1.20007787218032 184.2082265245724 29.105333517536394 0.0 0 0 0      
337 1 1.19979288919572 186.21493802039697 27.16764895277217 0.0 0 0 0      
338 2 2.39984504222704 188.15262258516125 29.1743604485967 1.9725 0 0 0      
339 3 -1.20007787218032 186.1804245548668 29.139846983066548 1.9725 0 0 0      
340 3 -1.20007787218032 188.18713605069135 27.202162418302322 1.9725 0 0 0      
341 3 -1.20007787218032 188.15262258516125 29.1743604485967 0.0 0 0 0      
342 1 1.19979288919572 190.15933408098573 27.236675883832476 0.0 0 0 0      
343 2 2.39984504222704 192.09701864575 29.24338737965701 1.9725 0 0 0      
344 3 -1.20007787218032 190.1248206154556 29.208873914126855 1.9725 0 0 0      
345 3 -1.20007787218032 192.1315321112801 27.27118934936263 1.9725 0 0 0      
346 3 -1.20007787218032 192.09701864575 29.24338737965701 0.0 0 0 0      
347 1 1.19979288919572 194.1037301415745 27.305702814892754 0.0 0 0 0      
348 2 2.39984504222704 196.0414147063388 29.312414310717315 1.9725 0 0 0      
349 3 -1.20007787218032 194.06921667604436 29.277900845187162 1.9725 0 0 0      
350 3 -1.20007787218032 196.07592817186892 27.340216280422936 1.9725 0 0 0      
351 3 -1.20007787218032 196.0414147063388 29.312414310717315 0.0 0 0 0      
352 1 1.19979288919572 198.0481262021633 27.37472974595306 0.0 0 0 0      
353 2 2.39984504222704 199.9858107669276 29.381441241777623 1.9725 0 0 0      
354 3 -1.20007787218032 198.01361273663315 29.34692777624747 1.9725 0 0 0      
355 3 -1.20007787218032 200.0203242324577 27.409243211483215 1.9725 0 0 0      
356 3 -1.20007787218032 199.9858107669276 29.381441241777623 0.0 0 0 0      
357 1 1.19979288919572 201.9925222627521 27.44375667701337 0.0 0 0 0      
358 2 2.39984504222704 203.9302068275164 29.45046817283793 1.9725 0 0 0      
359 3 -1.20007787218032 201.958008797222 29.415954707307776 1.9725 0 0 0      
360 3 -1.20007787218032 203.96472029304653 27.478270142543522 1.9725 0 0 0      
361 3 -1.20007787218032 203.9302068275164 29.45046817283793 0.0 0 0 0      
362 1 1.19979288919572 205.93691832334093 27.512783608073676 0.0 0 0 0      
363 2 2.39984504222704 207.8746028881052 29.519495103898237 1.9725 0 0 0      
364 3 -1.20007787218032 205.9024048578108 29.484981638368083 1.9725 0 0 0      
365 3 -1.20007787218032 207.9091163536353 27.54729707360383 1.9725 0 0 0      
366 3 -1.20007787218032 207.8746028881052 29.519495103898237 0.0 0 0 0      
367 1 1.19979288919572 209.8813143839297 27.581810539133983 0.0 0 0 0      
368 2 2.39984504222704 211.818998948694 29.588522034958544 1.9725 0 0 0      
369 3 -1.20007787218032 209.84680091839957 29.55400856942839 1.9725 0 0 0      
370 3 -1.20007787218032 211.85351241422416 27.616324004664136 1.9725 0 0 0      
371 3 -1.20007787218032 211.818998948694 29.588522034958544 0.0 0 0 0      
372 1 1.19979288919572 213.8257104445185 27.65083747019429 0.0 0 0 0      
373 2 2.39984504222704 215.7633950092828 29.65754896601885 1.9725 0 0 0      
374 3 -1.20007787218032 213.79119697898835 29.623035500488697 1.9725 0 0 0      
375 3 -1.20007787218032 215.7979084748129 27.685350935724443 1.9725 0 0 0      
376 3 -1.20007787218032 215.7633950092828 29.65754896601885 0.0 0 0 0      