LAMMPS data file via write_data, version 19 Nov 2024, timestep = 0, units = metal

28952 atoms
3 atom types

0 237.520453066678 xlo xhi
-142.512271840007 47.5040906133356 ylo yhi
0 7.89 zlo zhi

Masses

1 87.62
2 47.867
3 15.999

Atoms # charge

1 2 2.40038860102467 234.7238269090459 -141.49086629062765 1.9725000000000001 0 0 0
2 3 -1.19980574422129 232.8479122084741 -142.10053856831348 1.9725000000000001 0 0 0
3 3 -1.19980574422129 234.7238269090459 -141.49086629062765 0 0 0 0
4 3 -1.19980574422129 236.59974160961764 -140.88119401294182 1.9725000000000001 0 0 0
5 2 2.40038860102467 222.24899415024345 -141.39707055559904 1.9725000000000001 0 0 0
6 3 -1.19980574422129 220.37307944967165 -142.00674283328487 1.9725000000000001 0 0 0
7 3 -1.19980574422129 222.24899415024345 -141.39707055559904 0 0 0 0
8 2 2.40038860102467 226.000823551387 -140.17772600022738 1.9725000000000001 0 0 0
9 3 -1.19980574422129 224.12490885081525 -140.7873982779132 1.9725000000000001 0 0 0
10 3 -1.19980574422129 226.61049582907282 -142.05364070079918 1.9725000000000001 0 0 0
11 3 -1.19980574422129 226.000823551387 -140.17772600022738 0 0 0 0
12 1 1.20051822421834 228.48641052964462 -141.44396842311335 0 0 0 0
13 2 2.40038860102467 229.75265295253058 -138.95838144485572 1.9725000000000001 0 0 0
14 3 -1.19980574422129 227.87673825195878 -139.56805372254155 1.9725000000000001 0 0 0
15 3 -1.19980574422129 230.3623252302164 -140.83429614542752 1.9725000000000001 0 0 0
16 3 -1.19980574422129 229.75265295253058 -138.95838144485572 0 0 0 0
17 1 1.20051822421834 232.23823993078827 -140.22462386774168 0 0 0 0
18 2 2.40038860102467 233.50448235367423 -137.73903688948405 1.9725000000000001 0 0 0
19 3 -1.19980574422129 231.62856765310244 -138.3487091671699 1.9725000000000001 0 0 0
20 3 -1.19980574422129 234.11415463136007 -139.61495159005585 1.9725000000000001 0 0 0
21 3 -1.19980574422129 233.50448235367423 -137.73903688948405 0 0 0 0
22 1 1.20051822421834 235.9900693319318 -139.00527931237002 0 0 0 0
23 2 2.40038860102467 237.25631175481777 -136.5196923341124 1.9725000000000001 0 0 0
24 3 -1.19980574422129 235.38039705424598 -137.12936461179822 1.9725000000000001 0 0 0
25 3 -1.19980574422129 237.25631175481777 -136.5196923341124 0 0 0 0
26 2 2.40038860102467 209.774161391441 -141.30327482057044 1.9725000000000001 0 0 0
27 3 -1.19980574422129 207.8982466908692 -141.9129470982563 1.9725000000000001 0 0 0
28 3 -1.19980574422129 209.774161391441 -141.30327482057044 0 0 0 0
29 2 2.40038860102467 213.5259907925846 -140.08393026519877 1.9725000000000001 0 0 0
30 3 -1.19980574422129 211.6500760920128 -140.6936025428846 1.9725000000000001 0 0 0
31 3 -1.19980574422129 214.13566307027043 -141.95984496577057 1.9725000000000001 0 0 0
32 3 -1.19980574422129 213.5259907925846 -140.08393026519877 0 0 0 0
33 1 1.20051822421834 216.01157777084222 -141.35017268808474 0 0 0 0
34 2 2.40038860102467 217.2778201937282 -138.8645857098271 1.9725000000000001 0 0 0
35 3 -1.19980574422129 215.4019054931564 -139.47425798751294 1.9725000000000001 0 0 0
36 3 -1.19980574422129 217.88749247141402 -140.7405004103989 1.9725000000000001 0 0 0
37 3 -1.19980574422129 217.2778201937282 -138.8645857098271 0 0 0 0
38 1 1.20051822421834 219.76340717198582 -140.13082813271308 0 0 0 0
39 2 2.40038860102467 221.02964959487178 -137.64524115445545 1.9725000000000001 0 0 0
40 3 -1.19980574422129 219.1537348943 -138.25491343214128 1.9725000000000001 0 0 0
41 3 -1.19980574422129 221.63932187255762 -139.52115585502725 1.9725000000000001 0 0 0
42 3 -1.19980574422129 221.02964959487178 -137.64524115445545 0 0 0 0
43 1 1.20051822421834 223.5152365731294 -138.91148357734141 0 0 0 0
44 2 2.40038860102467 224.78147899601532 -136.42589659908379 1.9725000000000001 0 0 0
45 3 -1.19980574422129 222.90556429544358 -137.03556887676962 1.9725000000000001 0 0 0
46 3 -1.19980574422129 225.39115127370115 -138.30181129965558 1.9725000000000001 0 0 0
47 3 -1.19980574422129 224.78147899601532 -136.42589659908379 0 0 0 0
48 1 1.20051822421834 227.26706597427295 -137.69213902196975 0 0 0 0
49 2 2.40038860102467 228.53330839715892 -135.20655204371212 1.9725000000000001 0 0 0
50 3 -1.19980574422129 226.65739369658712 -135.81622432139795 1.9725000000000001 0 0 0
51 3 -1.19980574422129 229.14298067484475 -137.08246674428392 1.9725000000000001 0 0 0
52 3 -1.19980574422129 228.53330839715892 -135.20655204371212 0 0 0 0
53 1 1.20051822421834 231.0188953754166 -136.4727944665981 0 0 0 0
54 2 2.40038860102467 232.28513779830257 -133.98720748834046 1.9725000000000001 0 0 0
55 3 -1.19980574422129 230.40922309773077 -134.5968797660263 1.9725000000000001 0 0 0
56 3 -1.19980574422129 232.8948100759884 -135.86312218891226 1.9725000000000001 0 0 0
57 3 -1.19980574422129 232.28513779830257 -133.98720748834046 0 0 0 0
58 1 1.20051822421834 234.77072477656014 -135.25344991122643 0 0 0 0
59 2 2.40038860102467 236.0369671994461 -132.7678629329688 1.9725000000000001 0 0 0
60 3 -1.19980574422129 234.1610524988743 -133.37753521065463 1.9725000000000001 0 0 0
61 3 -1.19980574422129 236.64663947713194 -134.6437776335406 1.9725000000000001 0 0 0
62 3 -1.19980574422129 236.0369671994461 -132.7678629329688 0 0 0 0
63 2 2.40038860102467 193.54749923149495 -142.42882364091355 1.9725000000000001 0 0 0
64 3 -1.19980574422129 193.54749923149495 -142.42882364091355 0 0 0 0
65 2 2.40038860102467 197.29932863263855 -141.2094790855419 1.9725000000000001 0 0 0
66 3 -1.19980574422129 195.42341393206675 -141.81915136322772 1.9725000000000001 0 0 0
67 3 -1.19980574422129 197.29932863263855 -141.2094790855419 0 0 0 0
68 1 1.20051822421834 199.78491561089618 -142.47572150842785 0 0 0 0
69 2 2.40038860102467 201.05115803378214 -139.99013453017022 1.9725000000000001 0 0 0
70 3 -1.19980574422129 199.17524333321035 -140.59980680785606 1.9725000000000001 0 0 0
71 3 -1.19980574422129 201.66083031146798 -141.86604923074202 1.9725000000000001 0 0 0
72 3 -1.19980574422129 201.05115803378214 -139.99013453017022 0 0 0 0
73 1 1.20051822421834 203.53674501203977 -141.2563769530562 0 0 0 0
74 2 2.40038860102467 204.80298743492574 -138.77078997479856 1.9725000000000001 0 0 0
75 3 -1.19980574422129 202.92707273435394 -139.3804622524844 1.9725000000000001 0 0 0
76 3 -1.19980574422129 205.41265971261157 -140.64670467537036 1.9725000000000001 0 0 0
77 3 -1.19980574422129 204.80298743492574 -138.77078997479856 0 0 0 0
78 1 1.20051822421834 207.28857441318337 -140.03703239768453 0 0 0 0
79 2 2.40038860102467 208.55481683606934 -137.5514454194269 1.9725000000000001 0 0 0
80 3 -1.19980574422129 206.67890213549754 -138.16111769711273 1.9725000000000001 0 0 0
81 3 -1.19980574422129 209.16448911375517 -139.4273601199987 1.9725000000000001 0 0 0
82 3 -1.19980574422129 208.55481683606934 -137.5514454194269 0 0 0 0
83 1 1.20051822421834 211.04040381432696 -138.81768784231286 0 0 0 0
84 2 2.40038860102467 212.30664623721293 -136.33210086405523 1.9725000000000001 0 0 0
85 3 -1.19980574422129 210.43073153664113 -136.94177314174107 1.9725000000000001 0 0 0
86 3 -1.19980574422129 212.91631851489876 -138.20801556462703 1.9725000000000001 0 0 0
87 3 -1.19980574422129 212.30664623721293 -136.33210086405523 0 0 0 0
88 1 1.20051822421834 214.79223321547056 -137.59834328694117 0 0 0 0
89 2 2.40038860102467 216.05847563835653 -135.11275630868354 1.9725000000000001 0 0 0
90 3 -1.19980574422129 214.18256093778473 -135.72242858636938 1.9725000000000001 0 0 0
91 3 -1.19980574422129 216.66814791604236 -136.98867100925534 1.9725000000000001 0 0 0
92 3 -1.19980574422129 216.05847563835653 -135.11275630868354 0 0 0 0
93 1 1.20051822421834 218.54406261661416 -136.3789987315695 0 0 0 0
94 2 2.40038860102467 219.81030503950012 -133.89341175331188 1.9725000000000001 0 0 0
95 3 -1.19980574422129 217.93439033892832 -134.5030840309977 1.9725000000000001 0 0 0
96 3 -1.19980574422129 220.41997731718595 -135.76932645388368 1.9725000000000001 0 0 0
97 3 -1.19980574422129 219.81030503950012 -133.89341175331188 0 0 0 0
98 1 1.20051822421834 222.29589201775775 -135.15965417619785 0 0 0 0
99 2 2.40038860102467 223.56213444064366 -132.67406719794022 1.9725000000000001 0 0 0
100 3 -1.19980574422129 221.68621974007192 -133.28373947562605 1.9725000000000001 0 0 0
101 3 -1.19980574422129 224.1718067183295 -134.54998189851202 1.9725000000000001 0 0 0
102 3 -1.19980574422129 223.56213444064366 -132.67406719794022 0 0 0 0
103 1 1.20051822421834 226.0477214189013 -133.94030962082618 0 0 0 0
104 2 2.40038860102467 227.31396384178726 -131.45472264256856 1.9725000000000001 0 0 0
105 3 -1.19980574422129 225.43804914121546 -132.0643949202544 1.9725000000000001 0 0 0
106 3 -1.19980574422129 227.9236361194731 -133.33063734314035 1.9725000000000001 0 0 0
107 3 -1.19980574422129 227.31396384178726 -131.45472264256856 0 0 0 0
108 1 1.20051822421834 229.79955082004494 -132.7209650654545 0 0 0 0
109 2 2.40038860102467 231.0657932429309 -130.23537808719686 1.9725000000000001 0 0 0
110 3 -1.19980574422129 229.1898785423591 -130.8450503648827 1.9725000000000001 0 0 0
111 3 -1.19980574422129 231.67546552061674 -132.11129278776866 1.9725000000000001 0 0 0
112 3 -1.19980574422129 231.0657932429309 -130.23537808719686 0 0 0 0
113 1 1.20051822421834 233.55138022118848 -131.50162051008283 0 0 0 0
114 2 2.40038860102467 234.81762264407445 -129.0160335318252 1.9725000000000001 0 0 0
115 3 -1.19980574422129 232.94170794350265 -129.62570580951103 1.9725000000000001 0 0 0
116 3 -1.19980574422129 235.42729492176028 -130.891948232397 1.9725000000000001 0 0 0
117 3 -1.19980574422129 234.81762264407445 -129.0160335318252 0 0 0 0
118 1 1.20051822421834 237.30320962233208 -130.28227595471117 0 0 0 0
119 3 -1.19980574422129 236.69353734464624 -128.40636125413937 1.9725000000000001 0 0 0
120 2 2.40038860102467 181.0726664726925 -142.33502790588494 1.9725000000000001 0 0 0
121 3 -1.19980574422129 181.0726664726925 -142.33502790588494 0 0 0 0
122 2 2.40038860102467 184.8244958738361 -141.11568335051325 1.9725000000000001 0 0 0
123 3 -1.19980574422129 182.9485811732643 -141.72535562819908 1.9725000000000001 0 0 0
124 3 -1.19980574422129 184.8244958738361 -141.11568335051325 0 0 0 0
125 1 1.20051822421834 187.31008285209373 -142.38192577339922 0 0 0 0
126 2 2.40038860102467 188.5763252749797 -139.8963387951416 1.9725000000000001 0 0 0
127 3 -1.19980574422129 186.7004105744079 -140.50601107282742 1.9725000000000001 0 0 0
128 3 -1.19980574422129 189.18599755266553 -141.7722534957134 1.9725000000000001 0 0 0
129 3 -1.19980574422129 188.5763252749797 -139.8963387951416 0 0 0 0
130 1 1.20051822421834 191.06191225323732 -141.16258121802755 0 0 0 0
131 2 2.40038860102467 192.3281546761233 -138.67699423976993 1.9725000000000001 0 0 0
132 3 -1.19980574422129 190.4522399755515 -139.28666651745576 1.9725000000000001 0 0 0
133 3 -1.19980574422129 192.93782695380912 -140.55290894034172 1.9725000000000001 0 0 0
134 3 -1.19980574422129 192.3281546761233 -138.67699423976993 0 0 0 0
135 1 1.20051822421834 194.81374165438092 -139.9432366626559 0 0 0 0
136 2 2.40038860102467 196.0799840772669 -137.45764968439826 1.9725000000000001 0 0 0
137 3 -1.19980574422129 194.2040693766951 -138.0673219620841 1.9725000000000001 0 0 0
138 3 -1.19980574422129 196.68965635495272 -139.33356438497006 1.9725000000000001 0 0 0
139 3 -1.19980574422129 196.0799840772669 -137.45764968439826 0 0 0 0
140 1 1.20051822421834 198.56557105552452 -138.72389210728423 0 0 0 0
141 2 2.40038860102467 199.83181347841048 -136.2383051290266 1.9725000000000001 0 0 0
142 3 -1.19980574422129 197.95589877783868 -136.84797740671243 1.9725000000000001 0 0 0
143 3 -1.19980574422129 200.4414857560963 -138.1142198295984 1.9725000000000001 0 0 0
144 3 -1.19980574422129 199.83181347841048 -136.2383051290266 0 0 0 0
145 1 1.20051822421834 202.3174004566681 -137.50454755191257 0 0 0 0
146 2 2.40038860102467 203.58364287955408 -135.01896057365494 1.9725000000000001 0 0 0
147 3 -1.19980574422129 201.70772817898228 -135.62863285134077 1.9725000000000001 0 0 0
148 3 -1.19980574422129 204.1933151572399 -136.89487527422673 1.9725000000000001 0 0 0
149 3 -1.19980574422129 203.58364287955408 -135.01896057365494 0 0 0 0
150 1 1.20051822421834 206.0692298578117 -136.2852029965409 0 0 0 0
151 2 2.40038860102467 207.33547228069762 -133.79961601828325 1.9725000000000001 0 0 0
152 3 -1.19980574422129 205.45955758012582 -134.4092882959691 1.9725000000000001 0 0 0
153 3 -1.19980574422129 207.9451445583835 -135.67553071885504 1.9725000000000001 0 0 0
154 3 -1.19980574422129 207.33547228069762 -133.79961601828325 0 0 0 0
155 1 1.20051822421834 209.8210592589553 -135.0658584411692 0 0 0 0
156 2 2.40038860102467 211.0873016818412 -132.58027146291158 1.9725000000000001 0 0 0
157 3 -1.19980574422129 209.2113869812694 -133.1899437405974 1.9725000000000001 0 0 0
158 3 -1.19980574422129 211.6969739595271 -134.45618616348338 1.9725000000000001 0 0 0
159 3 -1.19980574422129 211.0873016818412 -132.58027146291158 0 0 0 0
160 1 1.20051822421834 213.5728886600989 -133.84651388579755 0 0 0 0
161 2 2.40038860102467 214.8391310829848 -131.36092690753992 1.9725000000000001 0 0 0
162 3 -1.19980574422129 212.963216382413 -131.97059918522575 1.9725000000000001 0 0 0
163 3 -1.19980574422129 215.4488033606707 -133.23684160811172 1.9725000000000001 0 0 0
164 3 -1.19980574422129 214.8391310829848 -131.36092690753992 0 0 0 0
165 1 1.20051822421834 217.3247180612425 -132.6271693304259 0 0 0 0
166 2 2.40038860102467 218.5909604841284 -130.14158235216826 1.9725000000000001 0 0 0
167 3 -1.19980574422129 216.7150457835566 -130.7512546298541 1.9725000000000001 0 0 0
168 3 -1.19980574422129 219.2006327618143 -132.01749705274005 1.9725000000000001 0 0 0
169 3 -1.19980574422129 218.5909604841284 -130.14158235216826 0 0 0 0
170 1 1.20051822421834 221.0765474623861 -131.40782477505422 0 0 0 0
171 2 2.40038860102467 222.342789885272 -128.9222377967966 1.9725000000000001 0 0 0
172 3 -1.19980574422129 220.4668751847002 -129.53191007448243 1.9725000000000001 0 0 0
173 3 -1.19980574422129 222.95246216295783 -130.7981524973684 1.9725000000000001 0 0 0
174 3 -1.19980574422129 222.342789885272 -128.9222377967966 0 0 0 0
175 1 1.20051822421834 224.82837686352963 -130.18848021968256 0 0 0 0
176 2 2.40038860102467 226.0946192864156 -127.70289324142493 1.9725000000000001 0 0 0
177 3 -1.19980574422129 224.2187045858438 -128.31256551911076 1.9725000000000001 0 0 0
178 3 -1.19980574422129 226.70429156410142 -129.57880794199673 1.9725000000000001 0 0 0
179 3 -1.19980574422129 226.0946192864156 -127.70289324142493 0 0 0 0
180 1 1.20051822421834 228.58020626467328 -128.9691356643109 0 0 0 0
181 2 2.40038860102467 229.8464486875592 -126.48354868605325 1.9725000000000001 0 0 0
182 3 -1.19980574422129 227.9705339869874 -127.09322096373909 1.9725000000000001 0 0 0
183 3 -1.19980574422129 230.45612096524508 -128.35946338662507 1.9725000000000001 0 0 0
184 3 -1.19980574422129 229.8464486875592 -126.48354868605325 0 0 0 0
185 1 1.20051822421834 232.33203566581682 -127.74979110893922 0 0 0 0
186 2 2.40038860102467 233.59827808870278 -125.26420413068159 1.9725000000000001 0 0 0
187 3 -1.19980574422129 231.722363388131 -125.87387640836742 1.9725000000000001 0 0 0
188 3 -1.19980574422129 234.20795036638862 -127.14011883125339 1.9725000000000001 0 0 0
189 3 -1.19980574422129 233.59827808870278 -125.26420413068159 0 0 0 0
190 1 1.20051822421834 236.0838650669604 -126.53044655356756 0 0 0 0
191 2 2.40038860102467 237.35010748984638 -124.04485957530993 1.9725000000000001 0 0 0
192 3 -1.19980574422129 235.47419278927458 -124.65453185299576 1.9725000000000001 0 0 0
193 3 -1.19980574422129 237.35010748984638 -124.04485957530993 0 0 0 0
194 2 2.40038860102467 168.59783371389005 -142.24123217085636 1.9725000000000001 0 0 0
195 3 -1.19980574422129 168.59783371389005 -142.24123217085636 0 0 0 0
196 2 2.40038860102467 172.34966311503365 -141.0218876154847 1.9725000000000001 0 0 0
197 3 -1.19980574422129 170.47374841446185 -141.63155989317053 1.9725000000000001 0 0 0
198 3 -1.19980574422129 172.34966311503365 -141.0218876154847 0 0 0 0
199 1 1.20051822421834 174.83525009329128 -142.28813003837067 0 0 0 0
200 2 2.40038860102467 176.10149251617725 -139.802543060113 1.9725000000000001 0 0 0
201 3 -1.19980574422129 174.22557781560545 -140.41221533779887 1.9725000000000001 0 0 0
202 3 -1.19980574422129 176.71116479386308 -141.6784577606848 1.9725000000000001 0 0 0
203 3 -1.19980574422129 176.10149251617725 -139.802543060113 0 0 0 0
204 1 1.20051822421834 178.58707949443487 -141.06878548299898 0 0 0 0
205 2 2.40038860102467 179.85332191732084 -138.58319850474135 1.9725000000000001 0 0 0
206 3 -1.19980574422129 177.97740721674904 -139.19287078242718 1.9725000000000001 0 0 0
207 3 -1.19980574422129 180.46299419500667 -140.45911320531314 1.9725000000000001 0 0 0
208 3 -1.19980574422129 179.85332191732084 -138.58319850474135 0 0 0 0
209 1 1.20051822421834 182.33890889557847 -139.8494409276273 0 0 0 0
210 2 2.40038860102467 183.60515131846444 -137.36385394936968 1.9725000000000001 0 0 0
211 3 -1.19980574422129 181.72923661789264 -137.97352622705552 1.9725000000000001 0 0 0
212 3 -1.19980574422129 184.21482359615027 -139.23976864994148 1.9725000000000001 0 0 0
213 3 -1.19980574422129 183.60515131846444 -137.36385394936968 0 0 0 0
214 1 1.20051822421834 186.09073829672207 -138.63009637225565 0 0 0 0
215 2 2.40038860102467 187.35698071960803 -136.14450939399802 1.9725000000000001 0 0 0
216 3 -1.19980574422129 185.48106601903623 -136.75418167168385 1.9725000000000001 0 0 0
217 3 -1.19980574422129 187.96665299729386 -138.02042409456982 1.9725000000000001 0 0 0
218 3 -1.19980574422129 187.35698071960803 -136.14450939399802 0 0 0 0
219 1 1.20051822421834 189.84256769786566 -137.410751816884 0 0 0 0
220 2 2.40038860102467 191.10881012075163 -134.92516483862636 1.9725000000000001 0 0 0
221 3 -1.19980574422129 189.23289542017983 -135.5348371163122 1.9725000000000001 0 0 0
222 3 -1.19980574422129 191.71848239843746 -136.80107953919816 1.9725000000000001 0 0 0
223 3 -1.19980574422129 191.10881012075163 -134.92516483862636 0 0 0 0
224 1 1.20051822421834 193.59439709900926 -136.19140726151232 0 0 0 0
225 2 2.40038860102467 194.86063952189522 -133.7058202832547 1.9725000000000001 0 0 0
226 3 -1.19980574422129 192.98472482132343 -134.31549256094053 1.9725000000000001 0 0 0
227 3 -1.19980574422129 195.47031179958105 -135.5817349838265 1.9725000000000001 0 0 0
228 3 -1.19980574422129 194.86063952189522 -133.7058202832547 0 0 0 0
229 1 1.20051822421834 197.34622650015285 -134.97206270614066 0 0 0 0
230 2 2.40038860102467 198.61246892303882 -132.48647572788303 1.9725000000000001 0 0 0
231 3 -1.19980574422129 196.73655422246702 -133.09614800556886 1.9725000000000001 0 0 0
232 3 -1.19980574422129 199.22214120072465 -134.36239042845483 1.9725000000000001 0 0 0
233 3 -1.19980574422129 198.61246892303882 -132.48647572788303 0 0 0 0
234 1 1.20051822421834 201.09805590129645 -133.752718150769 0 0 0 0
235 2 2.40038860102467 202.3642983241824 -131.26713117251137 1.9725000000000001 0 0 0
236 3 -1.19980574422129 200.48838362361062 -131.8768034501972 1.9725000000000001 0 0 0
237 3 -1.19980574422129 202.97397060186825 -133.14304587308317 1.9725000000000001 0 0 0
238 3 -1.19980574422129 202.3642983241824 -131.26713117251137 0 0 0 0
239 1 1.20051822421834 204.84988530244 -132.53337359539734 0 0 0 0
240 2 2.40038860102467 206.11612772532595 -130.0477866171397 1.9725000000000001 0 0 0
241 3 -1.19980574422129 204.24021302475415 -130.65745889482554 1.9725000000000001 0 0 0
242 3 -1.19980574422129 206.72580000301178 -131.9237013177115 1.9725000000000001 0 0 0
243 3 -1.19980574422129 206.11612772532595 -130.0477866171397 0 0 0 0
244 1 1.20051822421834 208.60171470358358 -131.31402904002567 0 0 0 0
245 2 2.40038860102467 209.86795712646955 -128.82844206176804 1.9725000000000001 0 0 0
246 3 -1.19980574422129 207.99204242589775 -129.43811433945388 1.9725000000000001 0 0 0
247 3 -1.19980574422129 210.47762940415538 -130.70435676233984 1.9725000000000001 0 0 0
248 3 -1.19980574422129 209.86795712646955 -128.82844206176804 0 0 0 0
249 1 1.20051822421834 212.35354410472718 -130.09468448465398 0 0 0 0
250 2 2.40038860102467 213.61978652761314 -127.60909750639635 1.9725000000000001 0 0 0
251 3 -1.19980574422129 211.74387182704135 -128.21876978408218 1.9725000000000001 0 0 0
252 3 -1.19980574422129 214.22945880529898 -129.48501220696815 1.9725000000000001 0 0 0
253 3 -1.19980574422129 213.61978652761314 -127.60909750639635 0 0 0 0
254 1 1.20051822421834 216.10537350587077 -128.87533992928232 0 0 0 0
255 2 2.40038860102467 217.37161592875674 -126.38975295102469 1.9725000000000001 0 0 0
256 3 -1.19980574422129 215.49570122818494 -126.99942522871052 1.9725000000000001 0 0 0
257 3 -1.19980574422129 217.98128820644257 -128.2656676515965 1.9725000000000001 0 0 0
258 3 -1.19980574422129 217.37161592875674 -126.38975295102469 0 0 0 0
259 1 1.20051822421834 219.85720290701437 -127.65599537391066 0 0 0 0
260 2 2.40038860102467 221.12344532990033 -125.17040839565303 1.9725000000000001 0 0 0
261 3 -1.19980574422129 219.24753062932854 -125.78008067333886 1.9725000000000001 0 0 0
262 3 -1.19980574422129 221.73311760758617 -127.04632309622482 1.9725000000000001 0 0 0
263 3 -1.19980574422129 221.12344532990033 -125.17040839565303 0 0 0 0
264 1 1.20051822421834 223.60903230815796 -126.436650818539 0 0 0 0
265 2 2.40038860102467 224.87527473104393 -123.95106384028136 1.9725000000000001 0 0 0
266 3 -1.19980574422129 222.99936003047213 -124.5607361179672 1.9725000000000001 0 0 0
267 3 -1.19980574422129 225.48494700872976 -125.82697854085316 1.9725000000000001 0 0 0
268 3 -1.19980574422129 224.87527473104393 -123.95106384028136 0 0 0 0
269 1 1.20051822421834 227.36086170930156 -125.21730626316732 0 0 0 0
270 2 2.40038860102467 228.62710413218753 -122.73171928490969 1.9725000000000001 0 0 0
271 3 -1.19980574422129 226.75118943161573 -123.34139156259552 1.9725000000000001 0 0 0
272 3 -1.19980574422129 229.23677640987336 -124.60763398548148 1.9725000000000001 0 0 0
273 3 -1.19980574422129 228.62710413218753 -122.73171928490969 0 0 0 0
274 1 1.20051822421834 231.11269111044516 -123.99796170779565 0 0 0 0
275 2 2.40038860102467 232.37893353333112 -121.51237472953802 1.9725000000000001 0 0 0
276 3 -1.19980574422129 230.50301883275932 -122.12204700722386 1.9725000000000001 0 0 0
277 3 -1.19980574422129 232.98860581101695 -123.38828943010982 1.9725000000000001 0 0 0
278 3 -1.19980574422129 232.37893353333112 -121.51237472953802 0 0 0 0
279 1 1.20051822421834 234.86452051158875 -122.77861715242399 0 0 0 0
280 2 2.40038860102467 236.13076293447472 -120.29303017416636 1.9725000000000001 0 0 0
281 3 -1.19980574422129 234.25484823390292 -120.90270245185219 1.9725000000000001 0 0 0
282 3 -1.19980574422129 236.74043521216055 -122.16894487473816 1.9725000000000001 0 0 0
283 3 -1.19980574422129 236.13076293447472 -120.29303017416636 0 0 0 0
284 2 2.40038860102467 156.1230009550876 -142.14743643582779 1.9725000000000001 0 0 0
285 3 -1.19980574422129 156.1230009550876 -142.14743643582779 0 0 0 0
286 2 2.40038860102467 159.87483035623126 -140.9280918804561 1.9725000000000001 0 0 0
287 3 -1.19980574422129 157.99891565565946 -141.53776415814193 1.9725000000000001 0 0 0
288 3 -1.19980574422129 159.87483035623126 -140.9280918804561 0 0 0 0
289 1 1.20051822421834 162.36041733448883 -142.19433430334206 0 0 0 0
290 2 2.40038860102467 163.6266597573748 -139.70874732508443 1.9725000000000001 0 0 0
291 3 -1.19980574422129 161.750745056803 -140.31841960277026 1.9725000000000001 0 0 0
292 3 -1.19980574422129 164.23633203506063 -141.58466202565623 1.9725000000000001 0 0 0
293 3 -1.19980574422129 163.6266597573748 -139.70874732508443 0 0 0 0
294 1 1.20051822421834 166.11224673563243 -140.9749897479704 0 0 0 0
295 2 2.40038860102467 167.3784891585184 -138.48940276971277 1.9725000000000001 0 0 0
296 3 -1.19980574422129 165.5025744579466 -139.0990750473986 1.9725000000000001 0 0 0
297 3 -1.19980574422129 167.98816143620422 -140.36531747028457 1.9725000000000001 0 0 0
298 3 -1.19980574422129 167.3784891585184 -138.48940276971277 0 0 0 0
299 1 1.20051822421834 169.86407613677602 -139.75564519259873 0 0 0 0
300 2 2.40038860102467 171.130318559662 -137.2700582143411 1.9725000000000001 0 0 0
301 3 -1.19980574422129 169.2544038590902 -137.87973049202694 1.9725000000000001 0 0 0
302 3 -1.19980574422129 171.73999083734782 -139.1459729149129 1.9725000000000001 0 0 0
303 3 -1.19980574422129 171.130318559662 -137.2700582143411 0 0 0 0
304 1 1.20051822421834 173.61590553791962 -138.53630063722707 0 0 0 0
305 2 2.40038860102467 174.88214796080558 -136.0507136589694 1.9725000000000001 0 0 0
306 3 -1.19980574422129 173.00623326023378 -136.66038593665527 1.9725000000000001 0 0 0
307 3 -1.19980574422129 175.4918202384914 -137.9266283595412 1.9725000000000001 0 0 0
308 3 -1.19980574422129 174.88214796080558 -136.0507136589694 0 0 0 0
309 1 1.20051822421834 177.3677349390632 -137.31695608185538 0 0 0 0
310 2 2.40038860102467 178.63397736194918 -134.83136910359775 1.9725000000000001 0 0 0
311 3 -1.19980574422129 176.75806266137738 -135.44104138128358 1.9725000000000001 0 0 0
312 3 -1.19980574422129 179.243649639635 -136.70728380416955 1.9725000000000001 0 0 0
313 3 -1.19980574422129 178.63397736194918 -134.83136910359775 0 0 0 0
314 1 1.20051822421834 181.1195643402068 -136.09761152648372 0 0 0 0
315 2 2.40038860102467 182.38580676309277 -133.6120245482261 1.9725000000000001 0 0 0
316 3 -1.19980574422129 180.50989206252098 -134.22169682591192 1.9725000000000001 0 0 0
317 3 -1.19980574422129 182.9954790407786 -135.4879392487979 1.9725000000000001 0 0 0
318 3 -1.19980574422129 182.38580676309277 -133.6120245482261 0 0 0 0
319 1 1.20051822421834 184.8713937413504 -134.87826697111205 0 0 0 0
320 2 2.40038860102467 186.13763616423637 -132.39267999285443 1.9725000000000001 0 0 0
321 3 -1.19980574422129 184.26172146366457 -133.00235227054026 1.9725000000000001 0 0 0
322 3 -1.19980574422129 186.7473084419222 -134.26859469342622 1.9725000000000001 0 0 0
323 3 -1.19980574422129 186.13763616423637 -132.39267999285443 0 0 0 0
324 1 1.20051822421834 188.623223142494 -133.6589224157404 0 0 0 0
325 2 2.40038860102467 189.88946556537996 -131.17333543748276 1.9725000000000001 0 0 0
326 3 -1.19980574422129 188.01355086480817 -131.7830077151686 1.9725000000000001 0 0 0
327 3 -1.19980574422129 190.4991378430658 -133.04925013805456 1.9725000000000001 0 0 0
328 3 -1.19980574422129 189.88946556537996 -131.17333543748276 0 0 0 0
329 1 1.20051822421834 192.3750525436376 -132.43957786036873 0 0 0 0
330 2 2.40038860102467 193.64129496652356 -129.9539908821111 1.9725000000000001 0 0 0
331 3 -1.19980574422129 191.76538026595176 -130.56366315979693 1.9725000000000001 0 0 0
332 3 -1.19980574422129 194.2509672442094 -131.8299055826829 1.9725000000000001 0 0 0
333 3 -1.19980574422129 193.64129496652356 -129.9539908821111 0 0 0 0
334 1 1.20051822421834 196.1268819447812 -131.22023330499707 0 0 0 0
335 2 2.40038860102467 197.39312436766716 -128.73464632673944 1.9725000000000001 0 0 0
336 3 -1.19980574422129 195.51720966709536 -129.34431860442527 1.9725000000000001 0 0 0
337 3 -1.19980574422129 198.002796645353 -130.61056102731123 1.9725000000000001 0 0 0
338 3 -1.19980574422129 197.39312436766716 -128.73464632673944 0 0 0 0
339 1 1.20051822421834 199.87871134592478 -130.0008887496254 0 0 0 0
340 2 2.40038860102467 201.14495376881075 -127.51530177136777 1.9725000000000001 0 0 0
341 3 -1.19980574422129 199.26903906823895 -128.1249740490536 1.9725000000000001 0 0 0
342 3 -1.19980574422129 201.75462604649658 -129.39121647193957 1.9725000000000001 0 0 0
343 3 -1.19980574422129 201.14495376881075 -127.51530177136777 0 0 0 0
344 1 1.20051822421834 203.63054074706832 -128.78154419425374 0 0 0 0
345 2 2.40038860102467 204.8967831699543 -126.2959572159961 1.9725000000000001 0 0 0
346 3 -1.19980574422129 203.0208684693825 -126.90562949368194 1.9725000000000001 0 0 0
347 3 -1.19980574422129 205.50645544764012 -128.1718719165679 1.9725000000000001 0 0 0
348 3 -1.19980574422129 204.8967831699543 -126.2959572159961 0 0 0 0
349 1 1.20051822421834 207.38237014821192 -127.56219963888206 0 0 0 0
350 2 2.40038860102467 208.64861257109789 -125.07661266062443 1.9725000000000001 0 0 0
351 3 -1.19980574422129 206.7726978705261 -125.68628493831027 1.9725000000000001 0 0 0
352 3 -1.19980574422129 209.25828484878372 -126.95252736119623 1.9725000000000001 0 0 0
353 3 -1.19980574422129 208.64861257109789 -125.07661266062443 0 0 0 0
354 1 1.20051822421834 211.13419954935551 -126.34285508351039 0 0 0 0
355 2 2.40038860102467 212.40044197224148 -123.85726810525276 1.9725000000000001 0 0 0
356 3 -1.19980574422129 210.52452727166968 -124.46694038293859 1.9725000000000001 0 0 0
357 3 -1.19980574422129 213.0101142499273 -125.73318280582455 1.9725000000000001 0 0 0
358 3 -1.19980574422129 212.40044197224148 -123.85726810525276 0 0 0 0
359 1 1.20051822421834 214.8860289504991 -125.12351052813872 0 0 0 0
360 2 2.40038860102467 216.15227137338508 -122.6379235498811 1.9725000000000001 0 0 0
361 3 -1.19980574422129 214.27635667281328 -123.24759582756693 1.9725000000000001 0 0 0
362 3 -1.19980574422129 216.7619436510709 -124.51383825045289 1.9725000000000001 0 0 0
363 3 -1.19980574422129 216.15227137338508 -122.6379235498811 0 0 0 0
364 1 1.20051822421834 218.6378583516427 -123.90416597276706 0 0 0 0
365 2 2.40038860102467 219.90410077452867 -121.41857899450943 1.9725000000000001 0 0 0
366 3 -1.19980574422129 218.02818607395687 -122.02825127219526 1.9725000000000001 0 0 0
367 3 -1.19980574422129 220.5137730522145 -123.29449369508123 1.9725000000000001 0 0 0
368 3 -1.19980574422129 219.90410077452867 -121.41857899450943 0 0 0 0
369 1 1.20051822421834 222.3896877527863 -122.6848214173954 0 0 0 0
370 2 2.40038860102467 223.65593017567227 -120.19923443913777 1.9725000000000001 0 0 0
371 3 -1.19980574422129 221.78001547510047 -120.8089067168236 1.9725000000000001 0 0 0
372 3 -1.19980574422129 224.2656024533581 -122.07514913970957 1.9725000000000001 0 0 0