LAMMPS data file via write_data, version 17 Apr 2024, timestep = 22, units = metal

14030 atoms
3 atom types

-1.2386698128446068 238.7591228795227 xlo xhi
-47.75679914068564 47.75679914068564 ylo yhi
0.04271968393817219 7.847280316061828 zlo zhi

Masses

1 87.62
2 47.867
3 15.999

Atoms # charge

7356 3 -1.19922019409548 -0.361895279675123 -45.38483620734797 1.9938598418099192 0 0 0
7265 2 2.40156286175261 -1.028180653861442 -47.19166166172343 1.9938598417472126 0 1 0
10784 3 -1.19922019409548 -1.0735708011199208 -47.23087872969636 3.944999999767529 0 1 0
10876 1 1.20208405696422 1.5449656483973555 -46.007392311885 3.9449999999152876 0 1 0
7360 2 2.40156286175261 4.146082450572381 -45.02192480622496 1.9938598419286118 0 0 0
7361 3 -1.19922019409548 3.2840593322980483 -46.6827452825304 1.9938598419234377 0 0 0
10880 3 -1.19922019409548 4.1649331286467035 -45.003764661087935 3.944999999959596 0 0 0
7470 3 -1.19922019409548 6.04118704817724 -45.866871142301434 1.9938598419474234 0 0 0
7365 2 2.40156286175261 8.019743772928893 -46.73214998672439 1.9938598419616769 0 0 0
10885 3 -1.19922019409548 7.990457935366985 -46.587739944797235 3.9449999999936782 0 0 0
10881 1 1.20208405696422 5.39186098094624 -47.62893417290169 3.944999999969295 0 1 0
7475 3 -1.19922019409548 8.72422289528035 -44.809977934614835 1.9938598419647187 0 0 0
7371 3 -1.19922019409548 9.989813045201746 -47.355174469372095 1.9938598419649665 0 1 0
10994 1 1.20208405696422 10.473878786910536 -45.617023613184266 3.9449999999969574 0 0 0
7479 3 -1.19922019409548 12.62323925219364 -46.42510609153997 1.9938598419681468 0 0 0
7478 2 2.40156286175261 13.157677729308755 -44.56139901764525 1.9938598419680975 0 0 0
10998 3 -1.19922019409548 13.286350081901224 -44.56485040134239 3.944999999999 0 0 0
10999 1 1.20208405696422 14.322532508463516 -47.15716332647734 3.9449999999994416 0 0 0
7483 2 2.40156286175261 17.05712575275655 -45.892700916088444 1.993859841968858 0 0 0
7484 3 -1.19922019409548 15.268634940085313 -45.300533368246896 1.993859841968589 0 0 0
11003 3 -1.19922019409548 17.213311502559716 -45.89785523994371 3.944999999999761 0 0 0
7488 2 2.40156286175261 21.031884642545236 -47.14744519166003 1.9938598419687514 0 0 0
7489 3 -1.19922019409548 19.25758226748041 -46.53945818500738 1.9938598419688496 0 0 0
7617 3 -1.19922019409548 21.7555247619022 -45.30073559757182 1.993859841968707 0 0 0
11008 3 -1.19922019409548 21.15512259368172 -47.18708977634985 3.9449999999996543 0 0 0
11131 1 1.20208405696422 19.563169792899995 -44.63680248213439 3.944999999999814 0 0 0
11136 1 1.20208405696422 23.488254657929005 -45.86345853539445 3.9449999999991756 0 0 0
7621 3 -1.19922019409548 25.607323136666455 -46.56022423352726 1.9938598419668778 0 0 0
7620 2 2.40156286175261 26.083812317096125 -44.64254686521566 1.9938598419654603 0 0 0
7626 3 -1.19922019409548 28.158946029031203 -45.324954536417636 1.99385984195881 0 0 0
11140 3 -1.19922019409548 26.198490441800935 -44.687370712466745 3.9449999999962784 0 0 0
11141 1 1.20208405696422 27.356397488700125 -47.11852396233348 3.9449999999956464 0 0 0
7625 2 2.40156286175261 29.956593016569638 -45.90428322877893 1.9938598419490121 0 0 0
11145 3 -1.19922019409548 30.066282426786273 -45.950073411743624 3.9449999999792547 0 0 0
7630 2 2.40156286175261 33.813176124574746 -47.159188799055975 1.9938598418693667 0 0 0
7631 3 -1.19922019409548 32.01372935956788 -46.58458389614916 1.9938598419203186 0 0 0
7775 3 -1.19922019409548 34.51962456972349 -45.31831320288597 1.993859841789791 0 0 0
11150 3 -1.19922019409548 33.91799260410128 -47.20474443530646 3.9449999998965755 0 0 0
11289 1 1.20208405696422 32.42340106709539 -44.616972007135786 3.944999999935147 0 0 0
11294 1 1.20208405696422 36.27145727222139 -45.85936075331835 3.944999999638036 0 0 0
7778 2 2.40156286175261 38.8516140626684 -44.61951367934125 1.993859839859374 0 0 0
7784 3 -1.19922019409548 40.884638353406224 -45.29529223282747 1.9938598376182153 0 0 0
7779 3 -1.19922019409548 38.35272432590689 -46.5614753557108 1.9938598409210804 0 0 0
11298 3 -1.19922019409548 38.95229995809008 -44.668696935216175 3.9449999978087926 0 0 0
11299 1 1.20208405696422 40.10777561842614 -47.1045894401014 3.9449999982686896 0 0 0
7783 2 2.40156286175261 42.68823391012625 -45.87210812668261 1.9938598314559328 0 0 0
7789 3 -1.19922019409548 44.711788613969404 -46.550942971094564 1.9938598262824712 0 0 0
11303 3 -1.19922019409548 42.784106194370025 -45.92011233326961 3.9449999888764524 0 0 0
7788 2 2.40156286175261 46.5169940291337 -47.1314383817026 1.993859803520285 0 0 0
7949 3 -1.19922019409548 47.21829540217962 -45.28688353292132 1.9938596977125904 0 0 0
11308 3 -1.19922019409548 46.60702984349664 -47.17679992729378 3.944999957442872 0 0 0
11463 1 1.20208405696422 45.149075284578934 -44.57646747606862 3.944999954292146 0 0 0
7953 3 -1.19922019409548 51.03030237133871 -46.54572210532347 1.993859497774953 0 0 0
11468 1 1.20208405696422 48.97874378593227 -45.83943521497419 3.9449998674933915 0 0 0
7952 2 2.40156286175261 51.559012379289406 -44.61444260283535 1.9938591453415373 0 0 0
7958 3 -1.19922019409548 53.55563357637099 -45.28755004347671 1.993859533931521 0 0 0
11472 3 -1.19922019409548 51.64277814665382 -44.65460558921577 3.9449991801344697 0 0 0
11473 1 1.20208405696422 52.79623358872193 -47.105307509545945 3.9449998371927815 0 0 0
7957 2 2.40156286175261 55.366941596239194 -45.87462927310234 1.9938595170067335 0 0 0
7963 3 -1.19922019409548 57.34513775466666 -46.53716228788367 1.9938597035218966 0 0 0
11477 3 -1.19922019409548 55.443352331370086 -45.90855148478556 3.9449996708806405 0 0 0
11650 1 1.20208405696422 57.8285264806341 -44.590097653894055 3.94499952345601 0 0 0
7962 2 2.40156286175261 59.162177786292986 -47.13452141613034 1.9938597436896295 0 0 0
8136 3 -1.19922019409548 59.846028208849056 -45.2713731234853 1.993859595018183 0 0 0
11482 3 -1.19922019409548 59.22864667866988 -47.16419478069633 3.944999899425955 0 0 0
8139 2 2.40156286175261 64.18495025995838 -44.63260210765348 1.9938597061385623 0 0 0
8141 3 -1.19922019409548 63.62441030785102 -46.53394856990939 1.9938597858016633 0 0 0
11655 1 1.20208405696422 61.62865191309507 -45.85967513629654 3.944999876146497 0 0 0
11659 3 -1.19922019409548 64.24461394147343 -44.652076692378806 3.9449998602157885 0 0 0
8145 3 -1.19922019409548 66.14188683286652 -45.2840108200702 1.9938597833612361 0 0 0
11660 1 1.20208405696422 65.42594593542745 -47.13587765445431 3.9449999736479984 0 0 0
8144 2 2.40156286175261 67.97443295435697 -45.906466042531235 1.9938598163828507 0 0 0
8150 3 -1.19922019409548 69.91278122271387 -46.54368728044235 1.9938598300770334 0 0 0
11664 3 -1.19922019409548 68.02126127282052 -45.91627881115512 3.9449999735992884 0 0 0
11837 1 1.20208405696422 70.45967235294565 -44.66416333461326 3.9449999784584833 0 0 0
8149 2 2.40156286175261 71.75761086300844 -47.16815734430476 1.9938598369427263 0 0 0
8323 3 -1.19922019409548 72.4203989001197 -45.288052330890096 1.9938598339949825 0 0 0
11669 3 -1.19922019409548 71.78965075514063 -47.168592548686455 3.944999994731492 0 0 0
11842 1 1.20208405696422 74.2475423522383 -45.92496131113983 3.9449999958927755 0 0 0
8326 2 2.40156286175261 76.77476260606865 -44.66086111610926 1.9938598385892992 0 0 0
8328 3 -1.19922019409548 76.17838922799972 -46.5245687323 1.9938598399785405 0 0 0
11846 3 -1.19922019409548 76.79933290800113 -44.63822651703401 3.944999996398135 0 0 0
8331 2 2.40156286175261 80.53607111086755 -45.892320828506286 1.9938598403348586 0 0 0
8332 3 -1.19922019409548 78.67390666722113 -45.25072793685232 1.9938598395397247 0 0 0
8333 3 -1.19922019409548 79.92345292446603 -47.75014408998185 1.9938598402241274 0 1 0
11847 1 1.20208405696422 78.02758085507266 -47.17134658842205 3.944999998211571 0 0 0
11851 3 -1.19922019409548 80.54383571421631 -45.86051549998622 3.944999998321557 0 0 0
8337 3 -1.19922019409548 82.41371770697283 -46.473179487868315 1.9938598389746616 0 0 0
12024 1 1.20208405696422 83.03201343393421 -44.64023504834224 3.9449999999411443 0 0 0
8336 2 2.40156286175261 84.29194278098247 -47.11809231832943 1.9938598382646184 0 0 0
8510 3 -1.19922019409548 84.90327873409841 -45.17373026220301 1.9938598434286334 0 0 0
8342 3 -1.19922019409548 86.15251645225989 -47.68472757823151 1.9938598330672763 0 1 0
11856 3 -1.19922019409548 84.28359397124237 -47.077972594440844 3.9449999962121 0 0 0
12029 1 1.20208405696422 86.79738601935178 -45.86654223705023 3.9449999971551684 0 0 0
8513 2 2.40156286175261 89.27684746546332 -44.55211944557403 1.9938598474371825 0 0 0
8515 3 -1.19922019409548 88.6428367425514 -46.38747724203649 1.9938598393008635 0 0 0
8516 3 -1.19922019409548 89.25835921307801 -44.49157020863625 0.04271968929822012 0 0 0
12034 1 1.20208405696422 90.56582373431459 -47.093589324744705 3.944999981013801 0 0 0
8518 2 2.40156286175261 93.03187602566427 -45.76854515570583 1.993859822481626 0 0 0
8519 3 -1.19922019409548 91.12753010864701 -45.09548729769205 1.9938598323418026 0 0 0
8520 3 -1.19922019409548 92.385437913507 -47.597735362478446 1.9938598159899175 0 0 0
12038 3 -1.19922019409548 92.99867696079151 -45.69989743439719 3.9449999794875015 0 0 0
8523 2 2.40156286175261 96.79296295641689 -46.98005625880247 1.9938597184615203 0 0 0
8524 3 -1.19922019409548 94.86941807210006 -46.29941349588334 1.9938597676015808 0 0 0
8700 3 -1.19922019409548 97.36047047139442 -44.98621830066392 1.9938598035265682 0 0 0
12043 3 -1.19922019409548 96.74638124434017 -46.90616215478015 3.944999872848935 0 0 0
12214 1 1.20208405696422 95.55777579440374 -44.51561823831716 3.94499997539749 0 0 0
8529 3 -1.19922019409548 98.6220764712415 -47.50223770450791 1.9938595560085814 0 0 0
12219 1 1.20208405696422 99.33278103100118 -45.7339643793316 3.9449997622359603 0 0 0
8705 3 -1.19922019409548 101.12225750416499 -46.20086012213638 1.9938595073926701 0 0 0
8709 3 -1.19922019409548 103.61683247084666 -44.91485406591235 1.9938589305733998 0 0 0
12224 1 1.20208405696422 103.12003503540512 -46.95803024818487 3.9449991220335563 0 0 0
8708 2 2.40156286175261 105.58243187183905 -45.62432227411343 1.993858385413165 0 0 0
8710 3 -1.19922019409548 104.90053419702508 -47.42335324589524 1.9938586570427426 0 0 0
12228 3 -1.19922019409548 105.51643863595245 -45.5381766406847 3.9449985289234313 0 0 0
8713 2 2.40156286175261 109.39366063163305 -46.8664008693599 1.9938558416399865 0 0 0
8714 3 -1.19922019409548 107.40259360754906 -46.14933960509028 1.9938571236597067 0 0 0
8890 3 -1.19922019409548 109.92507696544318 -44.88135627299979 1.993856163922638 0 0 0
12233 3 -1.19922019409548 109.31807802041732 -46.78080571974674 3.94499600312085 0 0 0
8719 3 -1.19922019409548 111.21225150955894 -47.394415060051514 1.9938532970799956 0 0 0
8895 3 -1.19922019409548 113.75177485106555 -46.147993624691544 1.9938506696897556 0 0 0
12409 1 1.20208405696422 111.97069242407954 -45.66632660418182 3.9449927097342186 0 0 0
8899 3 -1.19922019409548 116.26948065101305 -44.902541949205464 1.993843199820048 0 0 0
12414 1 1.20208405696422 115.80848966825177 -46.93274559476964 3.944984394118722 0 0 0
8898 2 2.40156286175261 118.2958017512507 -45.631815202758794 1.9938373869355768 0 0 0
8900 3 -1.19922019409548 117.58986094957562 -47.4176289932474 1.9938408544251456 0 0 0
8904 3 -1.19922019409548 120.10786044150021 -46.173301437404554 1.993828110195013 0 0 0
12418 3 -1.19922019409548 118.20499060884791 -45.54899189687751 3.9449775899859962 0 0 0
8903 2 2.40156286175261 122.13296132301028 -46.88852688351414 1.993819403428799 0 0 0
9080 3 -1.19922019409548 122.65007370609096 -44.92191359344227 1.9938201393454167 0 0 0
12423 3 -1.19922019409548 122.04263215606512 -46.808219805671115 3.9449598663666885 0 0 0
8909 3 -1.19922019409548 123.94645921010827 -47.425462923562954 1.993806531256592 0 0 0
9085 3 -1.19922019409548 126.48636313630678 -46.1742039559355 1.9937940474703186 0 0 0
12599 1 1.20208405696422 124.71363528668782 -45.679132834318644 3.9449411692442573 0 0 0
9089 3 -1.19922019409548 128.9940904311464 -44.91419281942699 1.9937700690514402 0 0 0
12604 1 1.20208405696422 128.54148603815074 -46.92439339798281 3.944910494467735 0 0 0
9088 2 2.40156286175261 131.01039592688073 -45.61315902183368 1.9937553798467473 0 0 0
9090 3 -1.19922019409548 130.31817154289357 -47.42305126595568 1.9937620050506617 0 0 0
9094 3 -1.19922019409548 132.82654075938004 -46.1641920896134 1.9937343223406174 0 0 0
12608 3 -1.19922019409548 130.92317708639527 -45.547547061600774 3.944896555730608 0 0 0
9093 2 2.40156286175261 134.83392554969413 -46.85583880612671 1.9937204744144175 0 0 0
9099 3 -1.19922019409548 136.65692172225988 -47.402801025764454 1.993699171275408 0 0 0
9268 3 -1.19922019409548 135.3598708660385 -44.91274280305948 1.9937307114845693 0 0 0
12613 3 -1.19922019409548 134.75217959820023 -46.7939851089623 3.944862330000779 0 0 0
9273 3 -1.19922019409548 139.18772858497877 -46.1438102528333 1.9937026067418049 0 0 0
12787 1 1.20208405696422 137.39774997590567 -45.624671921951084 3.94484030758671 0 0 0
9277 3 -1.19922019409548 141.6906637222981 -44.86530791316176 1.9936966716344042 0 0 0
9278 3 -1.19922019409548 142.99204250084975 -47.35244660579825 1.9936765644413432 0 0 0
12792 1 1.20208405696422 141.19689694651777 -46.83951564315396 3.9448141697780246 0 0 0
9276 2 2.40156286175261 143.65905817485944 -45.51552296369838 1.9936903139637683 0 0 0
9282 3 -1.19922019409548 145.49253663446328 -46.06780180434752 1.9936779151393376 0 0 0
12796 3 -1.19922019409548 143.59672880669774 -45.47081818867204 3.944831094413961 0 0 0
9281 2 2.40156286175261 147.44013216386293 -46.711900895697134 1.993678785019419 0 0 0
9287 3 -1.19922019409548 149.2806520404998 -47.26371625899306 1.9936750322055008 0 0 0
9456 3 -1.19922019409548 147.99987768362556 -44.77430274428587 1.9937277869064307 0 0 0
12801 3 -1.19922019409548 147.39030439110215 -46.66777874788305 3.944819378021809 0 0 0
12975 1 1.20208405696422 149.97079560863077 -45.43329109770525 3.944847957684786 0 0 0
9461 3 -1.19922019409548 151.78522205514176 -45.974275004511036 1.993724237826278 0 0 0
9464 2 2.40156286175261 156.20159645739207 -45.326066701673916 1.9937612386113783 0 0 0
9465 3 -1.19922019409548 154.28168168050027 -44.69031225627493 1.9937608636864648 0 0 0
9466 3 -1.19922019409548 155.5548534037473 -47.191829022040366 1.9937256634139309 0 0 0
12980 1 1.20208405696422 153.7273154329063 -46.635985743165115 3.9448524699980485 0 0 0
12984 3 -1.19922019409548 156.17129165332454 -45.305085515294 3.9449014366151074 0 0 0
9470 3 -1.19922019409548 158.0524047765418 -45.927430322615365 1.9937533931726965 0 0 0
9469 2 2.40156286175261 159.95104039799597 -46.562514202301735 1.9937586552615802 0 0 0
9475 3 -1.19922019409548 161.8119739207042 -47.185215809280294 1.9937523098139904 0 0 0
9644 3 -1.19922019409548 160.55194094748168 -44.66400156788224 1.993803636301239 0 0 0
12989 3 -1.19922019409548 159.93601655211577 -46.55078927055201 3.944902368963946 0 0 0
13163 1 1.20208405696422 162.45964748288816 -45.28872295062553 3.944927738376765 0 0 0
9649 3 -1.19922019409548 164.31027014044298 -45.94138432964774 1.993780476656295 0 0 0
13168 1 1.20208405696422 166.17610895344822 -46.54578801060576 3.9449144726642364 0 0 0
9652 2 2.40156286175261 168.66999842452 -45.29397939544243 1.9937869260867749 0 0 0
9653 3 -1.19922019409548 166.80691762770684 -44.696929470546976 1.993794930755041 0 0 0
9654 3 -1.19922019409548 168.053084964793 -47.232036527233575 1.99377265537556 0 0 0
13172 3 -1.19922019409548 168.67869349892433 -45.33537367532655 3.9449272205752686 0 0 0
9657 2 2.40156286175261 172.37270739186232 -46.59902823494483 1.9937829449349045 0 0 0
9658 3 -1.19922019409548 170.54369148325867 -45.98935961604355 1.9937832055803189 0 0 0
13177 3 -1.19922019409548 172.41661221655588 -46.65212778076583 3.9449232223343653 0 0 0
9663 3 -1.19922019409548 174.2835807655598 -47.33100931040399 1.9937869678399562 0 0 0
9821 3 -1.19922019409548 173.04398214171707 -44.78087043958828 1.9937883362828575 0 0 0
13340 1 1.20208405696422 174.81887820069596 -45.29801159882183 3.9449298789191447 0 0 0
9826 3 -1.19922019409548 176.7339805275431 -46.10023719927035 1.9937946495603591 0 0 0
9830 3 -1.19922019409548 179.54262474896237 -45.461339182732516 1.9938057498909578 0 0 0
13345 1 1.20208405696422 178.53429580333105 -46.636640894125215 3.9449426162272103 0 0 0
9829 2 2.40156286175261 181.3543051155135 -45.223939355885065 1.993809922043342 0 0 0
13349 3 -1.19922019409548 181.31412874394408 -45.5541371177501 3.944950257957209 0 0 0
9834 2 2.40156286175261 185.00611807346937 -46.56159448829703 1.9938237685345843 0 0 0
9835 3 -1.19922019409548 182.95887066871347 -46.20821517316877 1.9938151864180778 0 0 0
9982 3 -1.19922019409548 185.43055192471758 -44.76469171008216 1.993823395599057 0 0 0
13354 3 -1.19922019409548 184.94387121640244 -46.66524318501226 3.9449639157273264 0 0 0
9839 2 2.40156286175261 188.77032223805625 -47.75181456891578 1.9938371921209312 0 0 0
9840 3 -1.19922019409548 186.83673655994957 -47.222157269625605 1.9938304597335752 0 0 0
9987 3 -1.19922019409548 189.34872134520762 -45.99232234857489 1.9938375315133017 0 0 0
13501 1 1.20208405696422 187.52687459167439 -45.150232176608775 3.944971283591954 0 0 0
9991 3 -1.19922019409548 191.85766670318188 -44.70593623642851 1.9938421673933537 0 0 0
13506 1 1.20208405696422 191.3126664593597 -46.38200485432046 3.9449826851100247 0 0 0
9990 2 2.40156286175261 193.78779362099806 -45.173384153061384 1.9938468936984313 0 0 0
9992 3 -1.19922019409548 193.1187586585046 -47.22605912103079 1.9938472773500642 0 0 0
9996 3 -1.19922019409548 195.64055042031376 -45.925259369572565 1.9938500468624867 0 0 0
13510 3 -1.19922019409548 193.7481717308884 -45.3148215239729 3.9449870209866043 0 0 0
13511 1 1.20208405696422 195.0730429639372 -47.59376345756657 3.9449905030165877 0 0 0
9995 2 2.40156286175261 197.55905288999088 -46.37490576794393 1.993853035584106 0 0 0
10125 3 -1.19922019409548 198.14927288546514 -44.63282744510254 1.9938534616555326 0 0 0
13515 3 -1.19922019409548 197.5312776839497 -46.517428528520526 3.94499315891252 0 0 0
10000 2 2.40156286175261 201.34253869973324 -47.55573136281104 1.9938565188187194 0 0 0
10001 3 -1.19922019409548 199.43279144487664 -47.116080246710716 1.993854848030338 0 0 0
10130 3 -1.19922019409548 201.94114612477614 -45.816716406606695 1.9938567661241182 0 0 0
13520 3 -1.19922019409548 201.32201681001084 -47.70080803573769 3.944996653538316 0 0 0
13644 1 1.20208405696422 200.09256595868314 -44.95742339462488 3.9449952873349465 0 0 0
10135 3 -1.19922019409548 205.7382211521487 -46.99141945819415 1.9938584549645306 0 0 0
10134 3 -1.19922019409548 204.4590955020637 -44.49474608044887 1.9938575509083043 0 0 0
13649 1 1.20208405696422 203.87620860694088 -46.139593143972476 3.944997769773573 0 0 0
10133 2 2.40156286175261 206.36540097450495 -44.92105105755205 1.9938583861618884 0 0 0
10139 3 -1.19922019409548 208.25468854700054 -45.667623675301535 1.9938588194756237 0 0 0
13653 3 -1.19922019409548 206.34785345771692 -45.074718552157556 3.9449985289674716 0 0 0
13654 1 1.20208405696422 207.66607031209426 -47.31365442212755 3.9449990129560475 0 0 0
10138 2 2.40156286175261 210.1579287598857 -46.09941532642513 1.9938592173267224 0 0 0
10144 3 -1.19922019409548 212.04977496647425 -46.844866264827374 1.9938594133063376 0 0 0
13658 3 -1.19922019409548 210.1435597473085 -46.24840844758127 3.9449993677723683 0 0 0
10143 2 2.40156286175261 213.95161418892758 -47.28516102343456 1.9938595897922828 0 0 0
10255 3 -1.19922019409548 214.56452937422208 -45.549195862649505 1.9938596275948233 0 0 0
13663 3 -1.19922019409548 213.93688835674746 -47.428392515106054 3.944999744270949 0 0 0
13769 1 1.20208405696422 212.69188749753664 -44.694361255200995 3.9449996297130716 0 0 0
10260 3 -1.19922019409548 218.35414789574702 -46.74234161864131 1.9938597614436422 0 0 0
10258 2 2.40156286175261 218.9816091663419 -44.69994520136858 1.993859758427737 0 0 0
13774 1 1.20208405696422 216.4826826289286 -45.89649530892497 3.9449998554146717 0 0 0
13778 3 -1.19922019409548 218.9767371210399 -44.83793738736532 3.9449999150016506 0 0 0
10264 3 -1.19922019409548 220.87481464673306 -45.44803257544593 1.9938597865856422 0 0 0
13779 1 1.20208405696422 220.26561839153118 -47.115328487345316 3.94499994687231 0 0 0
10263 2 2.40156286175261 222.76347581136235 -45.93191159082782 1.99385981204933 0 0 0
10269 3 -1.19922019409548 224.64499419633952 -46.68344139616884 1.9938598225712059 0 0 0
13783 3 -1.19922019409548 222.7590671247558 -46.05554088310862 3.9449999695272857 0 0 0
13877 1 1.20208405696422 225.27419925992226 -44.5815384837466 3.9449999848129673 0 0 0
10268 2 2.40156286175261 226.53198001742908 -47.17854756816409 1.993859831874064 0 0 0
10363 3 -1.19922019409548 227.1488108407981 -45.407036852366524 1.9938598341424825 0 0 0
13788 3 -1.19922019409548 226.52127754903313 -47.28966809079777 3.944999989660199 0 0 0
10366 2 2.40156286175261 231.52636248857505 -44.635610184891135 1.9938598394433173 0 0 0
10368 3 -1.19922019409548 230.900900264966 -46.65626209699802 1.9938598394987856 0 0 0
13882 1 1.20208405696422 229.02910729444025 -45.84866681173153 3.9449999950406416 0 0 0
13886 3 -1.19922019409548 231.52381462987992 -44.731393200577 3.944999997382542 0 0 0
10372 3 -1.19922019409548 233.38692104667317 -45.33883923849436 1.9938598403658876 0 0 0
10371 2 2.40156286175261 235.25103206005605 -45.9022860220043 1.9938598412002397 0 0 0
13887 1 1.20208405696422 232.75772769656322 -47.10784015546107 3.9449999984834156 0 0 0
13891 3 -1.19922019409548 235.2367561214414 -45.976147915817585 3.9449999991998337 0 0 0
10376 3 -1.19922019409548 237.09079893897953 -46.59918829295626 1.9938598414963695 0 0 0
13968 1 1.20208405696422 237.7855571033519 -44.66691621927258 3.9449999996774117 0 0 0
7355 2 2.40156286175261 0.3344798939016147 -43.543980333301434 1.993859841817619 0 0 0
7464 3 -1.19922019409548 1.0102631700698883 -41.75665658004084 1.9938598418677662 0 0 0
10875 3 -1.19922019409548 0.335384496310438 -43.579273947093455 3.9449999998445433 0 0 0
7465 3 -1.19922019409548 2.2369252123322965 -44.20310722831178 1.993859841877848 0 0 0
7469 3 -1.19922019409548 4.907682496178121 -43.26682383957285 1.9938598419429032 0 0 0
10984 1 1.20208405696422 2.924317731967022 -42.48016116578538 3.944999999939262 0 0 0
7468 2 2.40156286175261 5.530508792944423 -41.47026824540125 1.9938598419453908 0 0 0
7474 3 -1.19922019409548 7.527355860054974 -42.24437349877047 1.9938598419569165 0 0 0
10989 1 1.20208405696422 6.741931836596789 -44.11911990300406 3.9449999999853995 0 0 0
10988 3 -1.19922019409548 5.588929007021429 -41.47250048043961 3.9449999999763103 0 0 0
7473 2 2.40156286175261 9.311884859159873 -43.00147282506303 1.9938598419640243 0 0 0
7602 3 -1.19922019409548 11.396126553225198 -43.82456518491966 1.9938598419666564 0 0 0
7601 3 -1.19922019409548 10.11680595455591 -41.207464737128824 1.993859841966179 0 0 0
10993 3 -1.19922019409548 9.423280115010892 -43.00824961227709 3.944999999995044 0 0 0
11121 1 1.20208405696422 11.887122357026453 -41.94423140930825 3.94499999999826 0 0 0
7607 3 -1.19922019409548 13.966043834856317 -42.70138244349338 1.9938598419685465 0 0 0
7612 3 -1.19922019409548 17.79884133988396 -44.02831229782135 1.99385984196894 0 0 0
7611 3 -1.19922019409548 16.529026829341596 -41.49997729416688 1.9938598419687719 0 0 0
7610 2 2.40156286175261 18.317444110025566 -42.1331529187636 1.9938598419689222 0 0 0
11126 1 1.20208405696422 15.687960929931988 -43.37058446671167 3.9449999999996543 0 0 0
11130 3 -1.19922019409548 18.43581529256368 -42.15400465218696 3.9449999999998315 0 0 0
7616 3 -1.19922019409548 20.382785196511843 -42.817560110206834 1.9938598419687315 0 0 0
7615 2 2.40156286175261 22.187954995116723 -43.39204792749091 1.9938598419685143 0 0 0
7760 3 -1.19922019409548 24.29034800590932 -44.05042575921281 1.9938598419671463 0 0 0
7759 3 -1.19922019409548 22.893397842868637 -41.54229242823559 1.99385984196884 0 0 0
11135 3 -1.19922019409548 22.310352147534864 -43.41849102052688 3.944999999999405 0 0 0
11279 1 1.20208405696422 24.66784883482628 -42.114234041958234 3.9449999999986614 0 0 0
7765 3 -1.19922019409548 26.800388087476303 -42.8139548217733 1.9938598419657192 0 0 0
7768 2 2.40156286175261 31.152457181121868 -42.14340656208779 1.993859841923478 0 0 0
7769 3 -1.19922019409548 29.348258137618696 -41.575890787956965 1.9938598419444846 0 0 0
7770 3 -1.19922019409548 30.66919176589441 -44.07218802716496 1.9938598419418248 0 0 0
11284 1 1.20208405696422 28.557995318108766 -43.367310354186195 3.944999999989742 0 0 0
11288 3 -1.19922019409548 31.258455753850924 -42.18896798232528 3.94499999995357 0 0 0
7774 3 -1.19922019409548 33.205500850163325 -42.815344996407106 1.993859841806805 0 0 0
7773 2 2.40156286175261 35.00923750869698 -43.37882383410703 1.9938598416325084 0 0 0
7934 3 -1.19922019409548 37.04878835886264 -44.04812419517419 1.9938598410503596 0 0 0
7933 3 -1.19922019409548 35.7023264321008 -41.53247645174866 1.9938598415740723 0 0 0
11293 3 -1.19922019409548 35.11302516834331 -43.42592287649129 3.9449999996556624 0 0 0
11453 1 1.20208405696422 37.46122362730968 -42.06537932652832 3.944999998618615 0 0 0
7939 3 -1.19922019409548 39.549974710801216 -42.77571288722201 1.993859837583513 0 0 0
11458 1 1.20208405696422 41.30952323590396 -43.3165029206687 3.9449999906380344 0 0 0
7942 2 2.40156286175261 43.89771264740634 -42.09127943124675 1.9938597779468252 0 0 0
7943 3 -1.19922019409548 42.09375129560529 -41.51783612167415 1.9938598165235724 0 0 0
7944 3 -1.19922019409548 43.391419294866004 -44.03025622072339 1.993859812189647 0 0 0
11462 3 -1.19922019409548 43.995584626354336 -42.14006488449772 3.944999933190517 0 0 0
7947 2 2.40156286175261 47.733239676917236 -43.35113063940364 1.9938595407774546 0 0 0
7948 3 -1.19922019409548 45.928320588760585 -42.77140026143406 1.9938597266511293 0 0 0
11467 3 -1.19922019409548 47.8256740244444 -43.39731097845608 3.9449996653211867 0 0 0
8121 3 -1.19922019409548 49.7521604428102 -44.02725536272252 1.9938595410031827 0 0 0
8120 3 -1.19922019409548 48.44121540516881 -41.51214536643912 1.993858710576235 0 0 0
11640 1 1.20208405696422 50.2020797598564 -42.06879196075791 3.9449988589977574 0 0 0
8126 3 -1.19922019409548 52.26821765450454 -42.769597494069345 1.9938565076545722 0 0 0
11645 1 1.20208405696422 54.02453948116595 -43.33041687242886 3.9449985544562773 0 0 0
8130 3 -1.19922019409548 54.79173830567121 -41.49994363017895 1.993857136735337 0 0 0
8129 2 2.40156286175261 56.59864893289598 -42.09107249184628 1.9938584819705123 0 0 0
8131 3 -1.19922019409548 56.05984414187827 -44.01613528629765 1.9938591135339023 0 0 0
11649 3 -1.19922019409548 56.679360870475705 -42.1209095916403 3.9449988118743673 0 0 0
8134 2 2.40156286175261 60.3916857375858 -43.35654227807564 1.9938592763908825 0 0 0
8135 3 -1.19922019409548 58.57886528407613 -42.752038475583085 1.9938588916838662 0 0 0
8308 3 -1.19922019409548 61.08141859244836 -41.48899433184536 1.9938591665816148 0 0 0
11654 3 -1.19922019409548 60.4637234170093 -43.38229877268818 3.944999397912043 0 0 0
8140 3 -1.19922019409548 62.363901949294544 -44.0128950063086 1.9938595799333498 0 0 0
11827 1 1.20208405696422 62.860712492946035 -42.09535185969874 3.944999418399098 0 0 0
8313 3 -1.19922019409548 64.87455451791638 -42.76866189067678 1.9938596224193854 0 0 0
8317 3 -1.19922019409548 67.39953336696588 -41.525113954462874 1.9938595818827456 0 0 0
11832 1 1.20208405696422 66.66418249649183 -43.38636337924026 3.944999876352598 0 0 0
8316 2 2.40156286175261 69.22402065379481 -42.159064908046595 1.9938597321163327 0 0 0
8318 3 -1.19922019409548 68.65182538279959 -44.03566756096457 1.9938597973868368 0 0 0
11836 3 -1.19922019409548 69.27729159597416 -42.16118764625897 3.944999882226282 0 0 0
8322 3 -1.19922019409548 71.17101418342047 -42.78817304782864 1.9938597922803967 0 0 0
8321 2 2.40156286175261 73.0063931089202 -43.419611930028374 1.9938598240504524 0 0 0
8495 3 -1.19922019409548 73.68488487475068 -41.52535105811346 1.9938598182827485 0 0 0
11841 3 -1.19922019409548 73.04559230185335 -43.40737530582304 3.9449999811871423 0 0 0
8327 3 -1.19922019409548 74.9261803343821 -44.028705912004895 1.9938598330119626 0 0 0
8500 3 -1.19922019409548 77.42659146802615 -42.74638145858991 1.9938598385425592 0 0 0
12014 1 1.20208405696422 75.49134035487265 -42.17513027024476 3.9449999886170515 0 0 0
8504 3 -1.19922019409548 79.92206004683189 -41.47148207324133 1.993859840036996 0 0 0
12019 1 1.20208405696422 79.26403997276249 -43.41205263943338 3.944999998468005 0 0 0
8503 2 2.40156286175261 81.77331296663068 -42.11347492666281 1.993859844653311 0 0 0
8505 3 -1.19922019409548 81.1719022132437 -43.96436106138397 1.9938598425170624 0 0 0
8506 3 -1.19922019409548 81.78982123946302 -42.06610242309988 0.04271968658340788 0 0 0
8509 3 -1.19922019409548 83.65456941986105 -42.66925911493707 1.9938598458181689 0 0 0
8508 2 2.40156286175261 85.52298442808218 -43.3304460281996 1.9938598487146864 0 0 0
8511 3 -1.19922019409548 85.52139003973392 -43.2785901693973 0.04271969077649245 0 0 0
8514 3 -1.19922019409548 87.38938151436908 -43.88395585926854 1.993859846470143 0 0 0
8685 3 -1.19922019409548 86.14442677607377 -41.367594104179126 1.9938598632754394 0 0 0
8687 1 1.20208405696422 88.02550728793719 -42.08232917830445 0.042719705613556515 0 0 0
8690 3 -1.19922019409548 89.8820381076374 -42.57955748589392 1.9938598766411357 0 0 0
8692 1 1.20208405696422 91.79180665418542 -43.30153381239118 0.04271970695772595 0 0 0
8694 3 -1.19922019409548 92.36202055254066 -41.276229501278245 1.9938599104057484 0 0 0
8695 3 -1.19922019409548 93.61741613294424 -43.780611949384664 1.993859875831169 0 0 0
8693 2 2.40156286175261 94.25880654397088 -41.95974230551946 1.9938599216056574 0 0 0
8696 3 -1.19922019409548 94.23168991347201 -41.87989172835019 0.04271976271296122 0 0 0
8699 3 -1.19922019409548 96.10073357542998 -42.47797460922632 1.9938598765262192 0 0 0