LAMMPS data file via write_data, version 19 Nov 2024, timestep = 0, units =.1 metal
              
14030 atoms             
3 atom types            
              
0 237.520453066678 xlo xhi           
-47.5040906133356 47.5040906133356 ylo yhi           
0 7.89 zlo zhi           
              
Masses              
              
1 87.62             
2 47.867             
3 15.999             
              
Atoms # charge            
              
1 2 2.40156286175261 232.94170794350265 -22.91133287005561 1.9725 0 0 0      
2 3 -1.19922019409548 232.94170794350265 -22.91133287005561 0.0 0 0 0      
3 2 2.40156286175261 236.69353734464624 -21.691988314683933 1.9725 0 0 0      
4 3 -1.19922019409548 234.8176226440744 -22.301660592369778 1.9725 0 0 0      
5 3 -1.19922019409548 236.69353734464624 -25.81210229865168 3.945 0 0 0      
6 3 -1.19922019409548 236.69353734464624 -21.691988314683933 0.0 0 0 0      
7 2 2.40156286175261 220.46687518470023 -22.817537135027003 1.9725 0 0 0      
8 3 -1.19922019409548 218.5909604841284 -23.427209412712834 1.9725 0 0 0      
9 3 -1.19922019409548 220.46687518470023 -22.817537135027003 0.0 0 0 0      
10 2 2.40156286175261 224.2187045858438 -21.59819257965534 1.9725 0 0 0      
11 3 -1.19922019409548 222.34278988527203 -22.20786485734117 1.9725 0 0 0      
12 3 -1.19922019409548 224.82837686352963 -23.474107280227138 1.9725 0 0 0      
13 3 -1.19922019409548 224.2187045858438 -21.59819257965534 0.0 0 0 0      
14 1 1.20208405696422 226.70429156410145 -22.864435002541306 0.0 0 0 0      
15 2 2.40156286175261 227.9705339869874 -20.378848024283677 1.9725 0 0 0      
16 3 -1.19922019409548 226.0946192864156 -20.98852030196951 1.9725 0 0 0      
17 3 -1.19922019409548 228.5802062646732 -22.254762724855475 1.9725 0 0 0      
18 3 -1.19922019409548 227.9705339869874 -20.378848024283677 0.0 0 0 0      
19 1 1.20208405696422 230.45612096524505 -21.645090447169636 0.0 0 0 0      
20 2 2.40156286175261 231.722363388131 -19.159503468912014 1.9725 0 0 0      
21 3 -1.19922019409548 229.8464486875592 -19.76917574659784 1.9725 0 0 0      
22 3 -1.19922019409548 232.3320356658168 -21.035418169483812 1.9725 0 0 0      
23 3 -1.19922019409548 231.722363388131 -19.159503468912014 0.0 0 0 0      
24 1 1.20208405696422 234.20795036638856 -20.42574589179798 0.0 0 0 0      
25 2 2.40156286175261 235.47419278927455 -17.940158913540337 1.9725 0 0 0      
26 3 -1.19922019409548 233.59827808870276 -18.54983119122619 1.9725 0 0 0      
27 3 -1.19922019409548 236.0838650669604 -19.816073614112135 1.9725 0 0 0      
28 3 -1.19922019409548 235.47419278927455 -17.940158913540337 0.0 0 0 0      
29 3 -1.19922019409548 237.3501074898464 -17.330486635854506 1.9725 0 0 0      
30 2 2.40156286175261 207.9920424258978 -22.723741399998424 1.9725 0 0 0      
31 3 -1.19922019409548 206.116127725326 -23.333413677684256 1.9725 0 0 0      
32 3 -1.19922019409548 207.9920424258978 -22.723741399998424 0.0 0 0 0      
33 2 2.40156286175261 211.7438718270414 -21.504396844626754 1.9725 0 0 0      
34 3 -1.19922019409548 209.8679571264696 -22.1140691223126 1.9725 0 0 0      
35 3 -1.19922019409548 212.35354410472723 -23.380311545198545 1.9725 0 0 0      
36 3 -1.19922019409548 211.7438718270414 -21.504396844626754 0.0 0 0 0      
37 1 1.20208405696422 214.22945880529903 -22.77063926751272 0.0 0 0 0      
38 2 2.40156286175261 215.4957012281849 -20.2850522892551 1.9725 0 0 0      
39 3 -1.19922019409548 213.6197865276132 -20.89472456694093 1.9725 0 0 0      
40 3 -1.19922019409548 216.1053735058708 -22.160966989826882 1.9725 0 0 0      
41 3 -1.19922019409548 215.4957012281849 -20.2850522892551 0.0 0 0 0      
42 1 1.20208405696422 217.98128820644257 -21.551294712141043 0.0 0 0 0      
43 2 2.40156286175261 219.2475306293286 -19.065707733883414 1.9725 0 0 0      
44 3 -1.19922019409548 217.37161592875677 -19.67538001156926 1.9725 0 0 0      
45 3 -1.19922019409548 219.85720290701445 -20.941622434455205 1.9725 0 0 0      
46 3 -1.19922019409548 219.2475306293286 -19.065707733883414 0.0 0 0 0      
47 1 1.20208405696422 221.73311760758625 -20.331950156769373 0.0 0 0 0      
48 2 2.40156286175261 222.99936003047213 -17.84636317851176 1.9725 0 0 0      
49 3 -1.19922019409548 221.1234453299004 -18.45603545619759 1.9725 0 0 0      
50 3 -1.19922019409548 223.609032308158 -19.72227787908355 1.9725 0 0 0      
51 3 -1.19922019409548 222.99936003047213 -17.84636317851176 0.0 0 0 0      
52 1 1.20208405696422 225.48494700872976 -19.112605601397718 0.0 0 0 0      
53 2 2.40156286175261 226.75118943161573 -16.627018623140096 1.9725 0 0 0      
54 3 -1.19922019409548 224.87527473104396 -17.236690900825927 1.9725 0 0 0      
55 3 -1.19922019409548 227.3608617093016 -18.50293332371188 1.9725 0 0 0      
56 3 -1.19922019409548 226.75118943161573 -16.627018623140096 0.0 0 0 0      
57 1 1.20208405696422 229.23677640987336 -17.893261046026034 0.0 0 0 0      
58 2 2.40156286175261 230.50301883275927 -15.40767406776844 1.9725 0 0 0      
59 3 -1.19922019409548 228.62710413218755 -16.017346345454257 1.9725 0 0 0      
60 3 -1.19922019409548 231.1126911104452 -17.283588768340216 1.9725 0 0 0      
61 3 -1.19922019409548 230.50301883275927 -15.40767406776844 0.0 0 0 0      
62 1 1.20208405696422 232.9886058110169 -16.673916490654385 0.0 0 0 0      
63 2 2.40156286175261 234.2548482339029 -14.188329512396756 1.9725 0 0 0      
64 3 -1.19922019409548 232.37893353333104 -14.798001790082594 1.9725 0 0 0      
65 3 -1.19922019409548 234.86452051158875 -16.06424421296854 1.9725 0 0 0      
66 3 -1.19922019409548 234.2548482339029 -14.188329512396756 0.0 0 0 0      
67 1 1.20208405696422 236.74043521216052 -15.454571935282708 0.0 0 0 0      
68 3 -1.19922019409548 236.13076293447472 -13.578657234710924 1.9725 0 0 0      
69 2 2.40156286175261 195.5172096670953 -22.629945664969817 1.9725 0 0 0      
70 3 -1.19922019409548 193.6412949665236 -23.23961794265565 1.9725 0 0 0      
71 3 -1.19922019409548 195.5172096670953 -22.629945664969817 0.0 0 0 0      
72 2 2.40156286175261 199.2690390682389 -21.410601109598154 1.9725 0 0 0      
73 3 -1.19922019409548 197.3931243676671 -22.020273387283986 1.9725 0 0 0      
74 3 -1.19922019409548 199.8787113459248 -23.286515810169966 1.9725 0 0 0      
75 3 -1.19922019409548 199.2690390682389 -21.410601109598154 0.0 0 0 0      
76 1 1.20208405696422 201.75462604649655 -22.676843532484114 0.0 0 0 0      
77 2 2.40156286175261 203.02086846938252 -20.191256554226477 1.9725 0 0 0      
78 3 -1.19922019409548 201.14495376881075 -20.80092883191231 1.9725 0 0 0      
79 3 -1.19922019409548 203.6305407470684 -22.06717125479829 1.9725 0 0 0      
80 3 -1.19922019409548 203.02086846938252 -20.191256554226477 0.0 0 0 0      
81 1 1.20208405696422 205.50645544764015 -21.457498977112458 0.0 0 0 0      
82 2 2.40156286175261 206.7726978705261 -18.971911998854814 1.9725 0 0 0      
83 3 -1.19922019409548 204.8967831699543 -19.581584276540646 1.9725 0 0 0      
84 3 -1.19922019409548 207.382370148212 -20.847826699426626 1.9725 0 0 0      
85 3 -1.19922019409548 206.7726978705261 -18.971911998854814 0.0 0 0 0      
86 1 1.20208405696422 209.25828484878377 -20.238154421740795 0.0 0 0 0      
87 2 2.40156286175261 210.52452727166968 -17.75256744348316 1.9725 0 0 0      
88 3 -1.19922019409548 208.64861257109789 -18.36223972116899 1.9725 0 0 0      
89 3 -1.19922019409548 211.1341995493556 -19.628482144054963 1.9725 0 0 0      
90 3 -1.19922019409548 210.52452727166968 -17.75256744348316 0.0 0 0 0      
91 1 1.20208405696422 213.01011424992737 -19.018809866369132 0.0 0 0 0      
92 2 2.40156286175261 214.27635667281328 -16.53322288811149 1.9725 0 0 0      
93 3 -1.19922019409548 212.40044197224148 -17.14289516579732 1.9725 0 0 0      
94 3 -1.19922019409548 214.8860289504991 -18.4091375886833 1.9725 0 0 0      
95 3 -1.19922019409548 214.27635667281328 -16.53322288811149 0.0 0 0 0      
96 1 1.20208405696422 216.7619436510709 -17.79946531099747 0.0 0 0 0      
97 2 2.40156286175261 218.02818607395687 -15.313878332739812 1.9725 0 0 0      
98 3 -1.19922019409548 216.15227137338508 -15.92355061042565 1.9725 0 0 0      
99 3 -1.19922019409548 218.6378583516428 -17.189793033311624 1.9725 0 0 0      
100 3 -1.19922019409548 218.02818607395687 -15.313878332739812 0.0 0 0 0      
101 1 1.20208405696422 220.51377305221456 -16.5801207556258 0.0 0 0 0      
102 2 2.40156286175261 221.78001547510047 -14.094533777368149 1.9725 0 0 0      
103 3 -1.19922019409548 219.90410077452867 -14.70420605505398 1.9725 0 0 0      
104 3 -1.19922019409548 222.3896877527863 -15.970448477939954 1.9725 0 0 0      
105 3 -1.19922019409548 221.78001547510047 -14.094533777368149 0.0 0 0 0      
106 1 1.20208405696422 224.2656024533581 -15.36077620025413 0.0 0 0 0      
107 2 2.40156286175261 225.5318448762441 -12.875189221996486 1.9725 0 0 0      
108 3 -1.19922019409548 223.65593017567227 -13.484861499682317 1.9725 0 0 0      
109 3 -1.19922019409548 226.1415171539299 -14.751103922568298 1.9725 0 0 0      
110 3 -1.19922019409548 225.5318448762441 -12.875189221996486 0.0 0 0 0      
111 1 1.20208405696422 228.0174318545017 -14.14143164488246 0.0 0 0 0      
112 2 2.40156286175261 229.2836742773877 -11.655844666624823 1.9725 0 0 0      
113 3 -1.19922019409548 227.40775957681583 -12.265516944310647 1.9725 0 0 0      
114 3 -1.19922019409548 229.8933465550735 -13.531759367196635 1.9725 0 0 0      
115 3 -1.19922019409548 229.2836742773877 -11.655844666624823 0.0 0 0 0      
116 1 1.20208405696422 231.76926125564523 -12.922087089510804 0.0 0 0 0      
117 2 2.40156286175261 233.03550367853128 -10.436500111253146 1.9725 0 0 0      
118 3 -1.19922019409548 231.1595889779594 -11.046172388938992 1.9725 0 0 0      
119 3 -1.19922019409548 233.6451759562171 -12.312414811824958 1.9725 0 0 0      
120 3 -1.19922019409548 233.03550367853128 -10.436500111253146 0.0 0 0 0      
121 1 1.20208405696422 235.52109065678889 -11.702742534139126 0.0 0 0 0      
122 2 2.40156286175261 236.78733307967485 -9.217155555881483 1.9725 0 0 0      
123 3 -1.19922019409548 234.91141837910305 -9.826827833567314 1.9725 0 0 0      
124 3 -1.19922019409548 237.39700535736068 -11.093070256453295 1.9725 0 0 0      
125 3 -1.19922019409548 236.78733307967485 -9.217155555881483 0.0 0 0 0      
126 2 2.40156286175261 183.0423769082929 -22.53614992994124 1.9725 0 0 0      
127 3 -1.19922019409548 181.1664622077211 -23.14582220762707 1.9725 0 0 0      
128 3 -1.19922019409548 183.0423769082929 -22.53614992994124 0.0 0 0 0      
129 2 2.40156286175261 186.7942063094365 -21.31680537456957 1.9725 0 0 0      
130 3 -1.19922019409548 184.9182916088647 -21.9264776522554 1.9725 0 0 0      
131 3 -1.19922019409548 187.40387858712236 -23.192720075141366 1.9725 0 0 0      
132 3 -1.19922019409548 186.7942063094365 -21.31680537456957 0.0 0 0 0      
133 1 1.20208405696422 189.27979328769413 -22.583047797455535 0.0 0 0 0      
134 2 2.40156286175261 190.5460357105801 -20.0974608191979 1.9725 0 0 0      
135 3 -1.19922019409548 188.6701210100083 -20.707133096883737 1.9725 0 0 0      
136 3 -1.19922019409548 191.15570798826596 -21.973375519769696 1.9725 0 0 0      
137 3 -1.19922019409548 190.5460357105801 -20.0974608191979 0.0 0 0 0      
138 1 1.20208405696422 193.03162268883773 -21.363703242083865 0.0 0 0 0      
139 2 2.40156286175261 194.29786511172364 -18.878116263826236 1.9725 0 0 0      
140 3 -1.19922019409548 192.4219504111519 -19.487788541512067 1.9725 0 0 0      
141 3 -1.19922019409548 194.90753738940955 -20.754030964398034 1.9725 0 0 0      
142 3 -1.19922019409548 194.29786511172364 -18.878116263826236 0.0 0 0 0      
143 1 1.20208405696422 196.78345208998127 -20.144358686712202 0.0 0 0 0      
144 2 2.40156286175261 198.04969451286723 -17.658771708454573 1.9725 0 0 0      
145 3 -1.19922019409548 196.17377981229544 -18.268443986140404 1.9725 0 0 0      
146 3 -1.19922019409548 198.65936679055312 -19.53468640902637 1.9725 0 0 0      
147 3 -1.19922019409548 198.04969451286723 -17.658771708454573 0.0 0 0 0      
148 1 1.20208405696422 200.5352814911249 -18.925014131340525 0.0 0 0 0      
149 2 2.40156286175261 201.8015239140109 -16.439427153082896 1.9725 0 0 0      
150 3 -1.19922019409548 199.9256092134391 -17.049099430768727 1.9725 0 0 0      
151 3 -1.19922019409548 202.41119619169672 -18.315341853654694 1.9725 0 0 0      
152 3 -1.19922019409548 201.8015239140109 -16.439427153082896 0.0 0 0 0      
153 1 1.20208405696422 204.2871108922685 -17.705669575968862 0.0 0 0 0      
154 2 2.40156286175261 205.5533533151544 -15.22008259771124 1.9725 0 0 0      
155 3 -1.19922019409548 203.67743861458263 -15.829754875397064 1.9725 0 0 0      
156 3 -1.19922019409548 206.1630255928403 -17.09599729828303 1.9725 0 0 0      
157 3 -1.19922019409548 205.5533533151544 -15.22008259771124 0.0 0 0 0      
158 1 1.20208405696422 208.0389402934121 -16.4863250205972 0.0 0 0 0      
159 2 2.40156286175261 209.305182716298 -14.00073804233957 1.9725 0 0 0      
160 3 -1.19922019409548 207.42926801572625 -14.610410320025402 1.9725 0 0 0      
161 3 -1.19922019409548 209.9148549939839 -15.876652742911368 1.9725 0 0 0      
162 3 -1.19922019409548 209.305182716298 -14.00073804233957 0.0 0 0 0      
163 1 1.20208405696422 211.7907696945557 -15.266980465225537 0.0 0 0 0      
164 2 2.40156286175261 213.0570121174416 -12.781393486967907 1.9725 0 0 0      
165 3 -1.19922019409548 211.18109741686985 -13.391065764653739 1.9725 0 0 0      
166 3 -1.19922019409548 213.66668439512745 -14.657308187539705 1.9725 0 0 0      
167 3 -1.19922019409548 213.0570121174416 -12.781393486967907 0.0 0 0 0      
168 1 1.20208405696422 215.54259909569925 -14.047635909853867 0.0 0 0 0      
169 2 2.40156286175261 216.8088415185852 -11.56204893159623 1.9725 0 0 0      
170 3 -1.19922019409548 214.9329268180134 -12.171721209282069 1.9725 0 0 0      
171 3 -1.19922019409548 217.4185137962711 -13.437963632168028 1.9725 0 0 0      
172 3 -1.19922019409548 216.8088415185852 -11.56204893159623 0.0 0 0 0      
173 1 1.20208405696422 219.2944284968429 -12.828291354482197 0.0 0 0 0      
174 2 2.40156286175261 220.5606709197288 -10.342704376224567 1.9725 0 0 0      
175 3 -1.19922019409548 218.684756219157 -10.952376653910399 1.9725 0 0 0      
176 3 -1.19922019409548 221.17034319741464 -12.218619076796365 1.9725 0 0 0      
177 3 -1.19922019409548 220.5606709197288 -10.342704376224567 0.0 0 0 0      
178 1 1.20208405696422 223.04625789798644 -11.608946799110534 0.0 0 0 0      
179 2 2.40156286175261 224.3125003208724 -9.123359820852905 1.9725 0 0 0      
180 3 -1.19922019409548 222.4365856203006 -9.733032098538736 1.9725 0 0 0      
181 3 -1.19922019409548 224.92217259855823 -10.999274521424702 1.9725 0 0 0      
182 3 -1.19922019409548 224.3125003208724 -9.123359820852905 0.0 0 0 0      
183 1 1.20208405696422 226.79808729913003 -10.389602243738864 0.0 0 0 0      
184 2 2.40156286175261 228.064329722016 -7.904015265481242 1.9725 0 0 0      
185 3 -1.19922019409548 226.1884150214442 -8.513687543167066 1.9725 0 0 0      
186 3 -1.19922019409548 228.67400199970183 -9.77992996605304 1.9725 0 0 0      
187 3 -1.19922019409548 228.064329722016 -7.904015265481242 0.0 0 0 0      
188 1 1.20208405696422 230.5499167002736 -9.170257688367208 0.0 0 0 0      
189 2 2.40156286175261 231.8161591231596 -6.684670710109565 1.9725 0 0 0      
190 3 -1.19922019409548 229.9402444225877 -7.29434298779541 1.9725 0 0 0      
191 3 -1.19922019409548 232.42583140084545 -8.560585410681362 1.9725 0 0 0      
192 3 -1.19922019409548 231.8161591231596 -6.684670710109565 0.0 0 0 0      
193 1 1.20208405696422 234.3017461014172 -7.950913132995524 0.0 0 0 0      
194 2 2.40156286175261 235.5679885243032 -5.465326154737902 1.9725 0 0 0      
195 3 -1.19922019409548 233.6920738237314 -6.074998432423733 1.9725 0 0 0      
196 3 -1.19922019409548 236.17766080198905 -7.3412408553096995 1.9725 0 0 0      
197 3 -1.19922019409548 235.5679885243032 -5.465326154737902 0.0 0 0 0      
198 3 -1.19922019409548 237.443903224875 -4.855653877052077 1.9725 0 0 0      
199 3 -1.19922019409548 236.0838650669604 -27.68801699922348 5.917499999999999 0 0 0      
200 3 -1.19922019409548 234.8176226440744 -25.20243002096582 5.917499999999999 0 0 0      
201 2 2.40156286175261 170.56754414949046 -22.44235419491264 1.9725 0 0 0      
202 3 -1.19922019409548 168.69162944891866 -23.05202647259847 1.9725 0 0 0      
203 3 -1.19922019409548 170.56754414949046 -22.44235419491264 0.0 0 0 0      
204 2 2.40156286175261 236.69353734464624 -25.81210229865168 5.917499999999999 0 0 0      
205 2 2.40156286175261 174.31937355063403 -21.223009639540976 1.9725 0 0 0      
206 3 -1.19922019409548 172.44345885006226 -21.832681917226807 1.9725 0 0 0      
207 3 -1.19922019409548 174.9290458283199 -23.098924340112788 1.9725 0 0 0      
208 3 -1.19922019409548 174.31937355063403 -21.223009639540976 0.0 0 0 0      
209 1 1.20208405696422 176.80496052889168 -22.489252062426957 0.0 0 0 0      
210 2 2.40156286175261 178.07120295177765 -20.003665084169306 1.9725 0 0 0      
211 3 -1.19922019409548 176.19528825120585 -20.613337361855145 1.9725 0 0 0      
212 3 -1.19922019409548 178.68087522946348 -21.879579784741118 1.9725 0 0 0      
213 3 -1.19922019409548 178.07120295177765 -20.003665084169306 0.0 0 0 0      
214 1 1.20208405696422 180.55678993003528 -21.269907507055287 0.0 0 0 0      
215 2 2.40156286175261 181.82303235292125 -18.784320528797643 1.9725 0 0 0      
216 3 -1.19922019409548 179.94711765234945 -19.393992806483475 1.9725 0 0 0      
217 3 -1.19922019409548 182.43270463060708 -20.660235229369455 1.9725 0 0 0      
218 3 -1.19922019409548 181.82303235292125 -18.784320528797643 0.0 0 0 0      
219 1 1.20208405696422 184.30861933117887 -20.050562951683617 0.0 0 0 0      
220 2 2.40156286175261 185.57486175406484 -17.564975973425973 1.9725 0 0 0      
221 3 -1.19922019409548 183.69894705349304 -18.174648251111805 1.9725 0 0 0      
222 3 -1.19922019409548 186.18453403175067 -19.440890673997785 1.9725 0 0 0      
223 3 -1.19922019409548 185.57486175406484 -17.564975973425973 0.0 0 0 0      
224 1 1.20208405696422 188.06044873232247 -18.831218396311954 0.0 0 0 0      
225 2 2.40156286175261 189.32669115520844 -16.345631418054303 1.9725 0 0 0      
226 3 -1.19922019409548 187.45077645463664 -16.95530369574014 1.9725 0 0 0      
227 3 -1.19922019409548 189.93636343289427 -18.221546118626115 1.9725 0 0 0      
228 3 -1.19922019409548 189.32669115520844 -16.345631418054303 0.0 0 0 0      
229 1 1.20208405696422 191.81227813346607 -17.611873840940284 0.0 0 0 0      
230 2 2.40156286175261 193.078520556352 -15.12628686268264 1.9725 0 0 0      
231 3 -1.19922019409548 191.20260585578023 -15.735959140368479 1.9725 0 0 0      
232 3 -1.19922019409548 193.6881928340378 -17.002201563254452 1.9725 0 0 0      
233 3 -1.19922019409548 193.078520556352 -15.12628686268264 0.0 0 0 0      
234 1 1.20208405696422 195.5641075346096 -16.392529285568614 0.0 0 0 0      
235 2 2.40156286175261 196.8303499574956 -13.906942307310977 1.9725 0 0 0      
236 3 -1.19922019409548 194.95443525692377 -14.516614584996809 1.9725 0 0 0      
237 3 -1.19922019409548 197.4400222351814 -15.78285700788279 1.9725 0 0 0      
238 3 -1.19922019409548 196.8303499574956 -13.906942307310977 0.0 0 0 0      
239 1 1.20208405696422 199.31593693575329 -15.173184730196944 0.0 0 0 0      
240 2 2.40156286175261 200.5821793586392 -12.6875977519393 1.9725 0 0 0      
241 3 -1.19922019409548 198.70626465806745 -13.297270029625132 1.9725 0 0 0      
242 3 -1.19922019409548 201.19185163632503 -14.56351245251112 1.9725 0 0 0      
243 3 -1.19922019409548 200.5821793586392 -12.6875977519393 0.0 0 0 0      
244 1 1.20208405696422 203.0677663368968 -13.953840174825288 0.0 0 0 0      
245 2 2.40156286175261 204.3340087597828 -11.468253196567638 1.9725 0 0 0      
246 3 -1.19922019409548 202.45809405921096 -12.077925474253469 1.9725 0 0 0      
247 3 -1.19922019409548 204.9436810374686 -13.34416789713945 1.9725 0 0 0      
248 3 -1.19922019409548 204.3340087597828 -11.468253196567638 0.0 0 0 0      
249 1 1.20208405696422 206.8195957380404 -12.734495619453618 0.0 0 0 0      
250 2 2.40156286175261 208.0858381609264 -10.248908641195975 1.9725 0 0 0      
251 3 -1.19922019409548 206.20992346035456 -10.858580918881806 1.9725 0 0 0      
252 3 -1.19922019409548 208.6955104386122 -12.124823341767787 1.9725 0 0 0      
253 3 -1.19922019409548 208.0858381609264 -10.248908641195975 0.0 0 0 0      
254 1 1.20208405696422 210.571425139184 -11.515151064081955 0.0 0 0 0      
255 2 2.40156286175261 211.8376675620699 -9.029564085824312 1.9725 0 0 0      
256 3 -1.19922019409548 209.96175286149816 -9.639236363510143 1.9725 0 0 0      
257 3 -1.19922019409548 212.44733983975576 -10.905478786396124 1.9725 0 0 0      
258 3 -1.19922019409548 211.8376675620699 -9.029564085824312 0.0 0 0 0      
259 1 1.20208405696422 214.3232545403276 -10.295806508710285 0.0 0 0 0      
260 2 2.40156286175261 215.58949696321355 -7.810219530452642 1.9725 0 0 0      
261 3 -1.19922019409548 213.7135822626417 -8.41989180813848 1.9725 0 0 0      
262 3 -1.19922019409548 216.19916924089935 -9.686134231024447 1.9725 0 0 0      
263 3 -1.19922019409548 215.58949696321355 -7.810219530452642 0.0 0 0 0      
264 1 1.20208405696422 218.0750839414712 -9.076461953338615 0.0 0 0 0      
265 2 2.40156286175261 219.3413263643571 -6.590874975080965 1.9725 0 0 0      
266 3 -1.19922019409548 217.46541166378532 -7.200547252766803 1.9725 0 0 0      
267 3 -1.19922019409548 219.95099864204295 -8.466789675652784 1.9725 0 0 0      
268 3 -1.19922019409548 219.3413263643571 -6.590874975080965 0.0 0 0 0      
269 1 1.20208405696422 221.8269133426148 -7.857117397966952 0.0 0 0 0      
270 2 2.40156286175261 223.09315576550068 -5.371530419709309 1.9725 0 0 0      
271 3 -1.19922019409548 221.21724106492888 -5.98120269739514 1.9725 0 0 0      
272 3 -1.19922019409548 223.70282804318657 -7.247445120281121 1.9725 0 0 0      
273 3 -1.19922019409548 223.09315576550068 -5.371530419709309 0.0 0 0 0      
274 1 1.20208405696422 225.5787427437584 -6.637772842595282 0.0 0 0 0      
275 2 2.40156286175261 226.84498516664428 -4.152185864337646 1.9725 0 0 0      
276 3 -1.19922019409548 224.96907046607248 -4.7618581420234705 1.9725 0 0 0      
277 3 -1.19922019409548 227.45465744433017 -6.028100564909458 1.9725 0 0 0      
278 3 -1.19922019409548 226.84498516664428 -4.152185864337646 0.0 0 0 0      
279 1 1.20208405696422 229.3305721449019 -5.418428287223627 0.0 0 0 0      
280 2 2.40156286175261 230.59681456778787 -2.932841308965962 1.9725 0 0 0      
281 3 -1.19922019409548 228.72089986721608 -3.5425135866518147 1.9725 0 0 0      
282 3 -1.19922019409548 231.20648684547376 -4.808756009537781 1.9725 0 0 0      
283 3 -1.19922019409548 230.59681456778787 -2.932841308965962 0.0 0 0 0      
284 1 1.20208405696422 233.0824015460456 -4.199083731851957 0.0 0 0 0      
285 2 2.40156286175261 234.34864396893147 -1.7134967535943062 1.9725 0 0 0      
286 3 -1.19922019409548 232.47272926835967 -2.3231690312801376 1.9725 0 0 0      
287 3 -1.19922019409548 234.95831624661736 -3.589411454166118 1.9725 0 0 0      
288 3 -1.19922019409548 234.34864396893147 -1.7134967535943062 0.0 0 0 0      
289 1 1.20208405696422 236.8342309471892 -2.9797391764802867 0.0 0 0 0      
290 3 -1.19922019409548 236.22455866950327 -1.1038244759084819 1.9725 0 0 0      
291 1 1.20208405696422 234.20795036638856 -27.07834472153762 3.945 0 0 0      
292 2 2.40156286175261 158.092711390688 -22.34855845988406 1.9725 0 0 0      
293 3 -1.19922019409548 156.2167966901162 -22.95823073756989 1.9725 0 0 0      
294 3 -1.19922019409548 158.092711390688 -22.34855845988406 0.0 0 0 0      
295 3 -1.19922019409548 232.3320356658168 -26.468672443851787 5.917499999999999 0 0 0      
296 2 2.40156286175261 161.8445407918316 -21.129213904512397 1.9725 0 0 0      
297 3 -1.19922019409548 159.9686260912598 -21.73888618219823 1.9725 0 0 0      
298 3 -1.19922019409548 162.45421306951744 -23.005128605084195 1.9725 0 0 0      
299 3 -1.19922019409548 161.8445407918316 -21.129213904512397 0.0 0 0 0      
300 1 1.20208405696422 164.33012777008923 -22.395456327398364 0.0 0 0 0      
301 2 2.40156286175261 165.5963701929752 -19.90986934914072 1.9725 0 0 0      
302 3 -1.19922019409548 163.7204554924034 -20.519541626826566 1.9725 0 0 0      
303 3 -1.19922019409548 166.20604247066103 -21.785784049712518 1.9725 0 0 0      
304 3 -1.19922019409548 165.5963701929752 -19.90986934914072 0.0 0 0 0      
305 1 1.20208405696422 168.08195717123283 -21.176111772026687 0.0 0 0 0      
306 2 2.40156286175261 169.3481995941188 -18.690524793769058 1.9725 0 0 0      
307 3 -1.19922019409548 167.472284893547 -19.30019707145489 1.9725 0 0 0      
308 3 -1.19922019409548 169.95787187180463 -20.566439494340855 1.9725 0 0 0      
309 3 -1.19922019409548 169.3481995941188 -18.690524793769058 0.0 0 0 0      
310 1 1.20208405696422 171.83378657237645 -19.956767216655024 0.0 0 0 0      
311 2 2.40156286175261 173.1000289952624 -17.471180238397395 1.9725 0 0 0      
312 3 -1.19922019409548 171.2241142946906 -18.080852516083226 1.9725 0 0 0      
313 3 -1.19922019409548 173.70970127294822 -19.3470949389692 1.9725 0 0 0      
314 3 -1.19922019409548 173.1000289952624 -17.471180238397395 0.0 0 0 0      
315 1 1.20208405696422 175.58561597352002 -18.737422661283368 0.0 0 0 0      
316 2 2.40156286175261 176.851858396406 -16.251835683025725 1.9725 0 0 0      
317 3 -1.19922019409548 174.9759436958342 -16.861507960711563 1.9725 0 0 0      
318 3 -1.19922019409548 177.46153067409182 -18.127750383597522 1.9725 0 0 0      
319 3 -1.19922019409548 176.851858396406 -16.251835683025725 0.0 0 0 0      
320 1 1.20208405696422 179.33744537466362 -17.518078105911684 0.0 0 0 0      
321 2 2.40156286175261 180.6036877975496 -15.032491127654062 1.9725 0 0 0      
322 3 -1.19922019409548 178.72777309697778 -15.642163405339893 1.9725 0 0 0      
323 3 -1.19922019409548 181.2133600752354 -16.90840582822586 1.9725 0 0 0      
324 3 -1.19922019409548 180.6036877975496 -15.032491127654062 0.0 0 0 0      
325 1 1.20208405696422 183.0892747758072 -16.29873355054002 0.0 0 0 0      
326 2 2.40156286175261 184.3555171986932 -13.813146572282399 1.9725 0 0 0      
327 3 -1.19922019409548 182.47960249812135 -14.422818849968223 1.9725 0 0 0      
328 3 -1.19922019409548 184.965189476379 -15.68906127285419 1.9725 0 0 0      
329 3 -1.19922019409548 184.3555171986932 -13.813146572282399 0.0 0 0 0      
330 1 1.20208405696422 186.8411041769508 -15.079388995168358 0.0 0 0 0      
331 2 2.40156286175261 188.1073465998368 -12.593802016910722 1.9725 0 0 0      
332 3 -1.19922019409548 186.23143189926495 -13.20347429459656 1.9725 0 0 0      
333 3 -1.19922019409548 188.7170188775226 -14.46971671748252 1.9725 0 0 0      
334 3 -1.19922019409548 188.1073465998368 -12.593802016910722 0.0 0 0 0      
335 1 1.20208405696422 190.5929335780944 -13.860044439796688 0.0 0 0 0      
336 2 2.40156286175261 191.8591760009803 -11.374457461539059 1.9725 0 0 0      
337 3 -1.19922019409548 189.98326130040857 -11.98412973922489 1.9725 0 0 0      
338 3 -1.19922019409548 192.46884827866612 -13.250372162110857 1.9725 0 0 0      
339 3 -1.19922019409548 191.8591760009803 -11.374457461539059 0.0 0 0 0      
340 1 1.20208405696422 194.34476297923797 -12.640699884425025 0.0 0 0 0      
341 2 2.40156286175261 195.6110054021239 -10.155112906167396 1.9725 0 0 0      
342 3 -1.19922019409548 193.7350907015521 -10.764785183853228 1.9725 0 0 0      
343 3 -1.19922019409548 196.2206776798097 -12.031027606739194 1.9725 0 0 0      
344 3 -1.19922019409548 195.6110054021239 -10.155112906167396 0.0 0 0 0      
345 1 1.20208405696422 198.0965923803816 -11.421355329053348 0.0 0 0 0      
346 2 2.40156286175261 199.3628348032676 -8.935768350795719 1.9725 0 0 0      
347 3 -1.19922019409548 197.48692010269576 -9.54544062848155 1.9725 0 0 0      
348 3 -1.19922019409548 199.9725070809534 -10.811683051367517 1.9725 0 0 0      
349 3 -1.19922019409548 199.3628348032676 -8.935768350795719 0.0 0 0 0      
350 1 1.20208405696422 201.84842178152516 -10.202010773681685 0.0 0 0 0      
351 2 2.40156286175261 203.1146642044111 -7.716423795424056 1.9725 0 0 0      
352 3 -1.19922019409548 201.2387495038393 -8.326096073109888 1.9725 0 0 0      
353 3 -1.19922019409548 203.72433648209693 -9.592338495995854 1.9725 0 0 0      
354 3 -1.19922019409548 203.1146642044111 -7.716423795424056 0.0 0 0 0      
355 1 1.20208405696422 205.60025118266876 -8.982666218310023 0.0 0 0 0      
356 2 2.40156286175261 206.8664936055547 -6.4970792400524005 1.9725 0 0 0      
357 3 -1.19922019409548 204.9905789049829 -7.106751517738225 1.9725 0 0 0      
358 3 -1.19922019409548 207.47616588324053 -8.372993940624191 1.9725 0 0 0      
359 3 -1.19922019409548 206.8664936055547 -6.4970792400524005 0.0 0 0 0      
360 1 1.20208405696422 209.35208058381232 -7.76332166293836 0.0 0 0 0      
361 2 2.40156286175261 210.61832300669823 -5.2777346846807305 1.9725 0 0 0      
362 3 -1.19922019409548 208.7424083061265 -5.887406962366562 1.9725 0 0 0      
363 3 -1.19922019409548 211.2279952843841 -7.153649385252528 1.9725 0 0 0      
364 3 -1.19922019409548 210.61832300669823 -5.2777346846807305 0.0 0 0 0      
365 1 1.20208405696422 213.10390998495583 -6.54397710756669 0.0 0 0 0      
366 2 2.40156286175261 214.37015240784189 -4.058390129309053 1.9725 0 0 0      
367 3 -1.19922019409548 212.49423770727003 -4.668062406994892 1.9725 0 0 0      
368 3 -1.19922019409548 214.9798246855277 -5.934304829880844 1.9725 0 0 0      
369 3 -1.19922019409548 214.37015240784189 -4.058390129309053 0.0 0 0 0      
370 1 1.20208405696422 216.85573938609951 -5.32463255219502 0.0 0 0 0      
371 2 2.40156286175261 218.12198180898545 -2.8390455739373976 1.9725 0 0 0      
372 3 -1.19922019409548 216.24606710841368 -3.448717851623222 1.9725 0 0 0      