LAMMPS data file via write_data, version 19 Nov 2024, timestep = 0, units =.1 metal
              
14030 atoms             
3 atom types            
              
0 237.520453066678 xlo xhi           
-47.5040906133356 47.5040906133356 ylo yhi           
0 7.89 zlo zhi           
              
Masses              
              
1 87.62             
2 47.867             
3 15.999             
              
Atoms # charge            
              
1 2 2.40156286175261 232.94170794350265 24.592757743280004 1.9725 0 0 0      
2 3 -1.19922019409548 232.94170794350265 24.592757743280004 0.0 0 0 0      
3 2 2.40156286175261 236.69353734464624 25.812102298651666 1.9725 0 0 0      
4 3 -1.19922019409548 234.8176226440744 25.202430020965835 1.9725 0 0 0      
5 3 -1.19922019409548 236.69353734464624 116.70016954135514 3.945 0 0 0      
6 3 -1.19922019409548 236.69353734464624 25.812102298651666 0.0 0 0 0      
7 2 2.40156286175261 220.46687518470023 24.68655347830861 1.9725 0 0 0      
8 3 -1.19922019409548 218.5909604841284 24.07688120062278 1.9725 0 0 0      
9 3 -1.19922019409548 220.46687518470023 24.68655347830861 0.0 0 0 0      
10 2 2.40156286175261 224.2187045858438 25.905898033680273 1.9725 0 0 0      
11 3 -1.19922019409548 222.34278988527203 25.296225755994442 1.9725 0 0 0      
12 3 -1.19922019409548 224.82837686352963 24.029983333108476 1.9725 0 0 0      
13 3 -1.19922019409548 224.2187045858438 25.905898033680273 0.0 0 0 0      
14 1 1.20208405696422 226.70429156410145 24.639655610794307 0.0 0 0 0      
15 2 2.40156286175261 227.9705339869874 27.125242589051936 1.9725 0 0 0      
16 3 -1.19922019409548 226.0946192864156 26.515570311366105 1.9725 0 0 0      
17 3 -1.19922019409548 228.5802062646732 25.24932788848014 1.9725 0 0 0      
18 3 -1.19922019409548 227.9705339869874 27.125242589051936 0.0 0 0 0      
19 1 1.20208405696422 230.45612096524505 25.85900016616597 0.0 0 0 0      
20 2 2.40156286175261 231.722363388131 28.3445871444236 1.9725 0 0 0      
21 3 -1.19922019409548 229.8464486875592 27.734914866737768 1.9725 0 0 0      
22 3 -1.19922019409548 232.3320356658168 26.4686724438518 1.9725 0 0 0      
23 3 -1.19922019409548 231.722363388131 28.3445871444236 0.0 0 0 0      
24 1 1.20208405696422 234.20795036638856 27.078344721537633 0.0 0 0 0      
25 2 2.40156286175261 235.47419278927455 29.563931699795262 1.9725 0 0 0      
26 3 -1.19922019409548 233.59827808870276 28.954259422109402 1.9725 0 0 0      
27 3 -1.19922019409548 236.0838650669604 27.688016999223464 1.9725 0 0 0      
28 3 -1.19922019409548 235.47419278927455 29.563931699795262 0.0 0 0 0      
29 3 -1.19922019409548 237.3501074898464 30.173603977481093 1.9725 0 0 0      
30 2 2.40156286175261 207.9920424258978 24.78034921333716 1.9725 0 0 0      
31 3 -1.19922019409548 206.116127725326 24.17067693565133 1.9725 0 0 0      
32 3 -1.19922019409548 207.9920424258978 24.78034921333716 0.0 0 0 0      
33 2 2.40156286175261 211.7438718270414 25.999693768708852 1.9725 0 0 0      
34 3 -1.19922019409548 209.8679571264696 25.390021491022992 1.9725 0 0 0      
35 3 -1.19922019409548 212.35354410472723 24.123779068137054 1.9725 0 0 0      
36 3 -1.19922019409548 211.7438718270414 25.999693768708852 0.0 0 0 0      
37 1 1.20208405696422 214.22945880529903 24.733451345822886 0.0 0 0 0      
38 2 2.40156286175261 215.4957012281849 27.219038324080486 1.9725 0 0 0      
39 3 -1.19922019409548 213.6197865276132 26.609366046394655 1.9725 0 0 0      
40 3 -1.19922019409548 216.1053735058708 25.343123623508717 1.9725 0 0 0      
41 3 -1.19922019409548 215.4957012281849 27.219038324080486 0.0 0 0 0      
42 1 1.20208405696422 217.98128820644257 25.95279590119455 0.0 0 0 0      
43 2 2.40156286175261 219.2475306293286 28.438382879452178 1.9725 0 0 0      
44 3 -1.19922019409548 217.37161592875677 27.828710601766346 1.9725 0 0 0      
45 3 -1.19922019409548 219.85720290701445 26.56246817888041 1.9725 0 0 0      
46 3 -1.19922019409548 219.2475306293286 28.438382879452178 0.0 0 0 0      
47 1 1.20208405696422 221.73311760758625 27.17214045656624 0.0 0 0 0      
48 2 2.40156286175261 222.99936003047213 29.65772743482384 1.9725 0 0 0      
49 3 -1.19922019409548 221.1234453299004 29.04805515713801 1.9725 0 0 0      
50 3 -1.19922019409548 223.609032308158 27.781812734252043 1.9725 0 0 0      
51 3 -1.19922019409548 222.99936003047213 29.65772743482384 0.0 0 0 0      
52 1 1.20208405696422 225.48494700872976 28.391485011937874 0.0 0 0 0      
53 2 2.40156286175261 226.75118943161573 30.877071990195503 1.9725 0 0 0      
54 3 -1.19922019409548 224.87527473104396 30.267399712509672 1.9725 0 0 0      
55 3 -1.19922019409548 227.3608617093016 29.001157289623734 1.9725 0 0 0      
56 3 -1.19922019409548 226.75118943161573 30.877071990195503 0.0 0 0 0      
57 1 1.20208405696422 229.23677640987336 29.610829567309565 0.0 0 0 0      
58 2 2.40156286175261 230.50301883275927 32.096416545567166 1.9725 0 0 0      
59 3 -1.19922019409548 228.62710413218755 31.486744267881335 1.9725 0 0 0      
60 3 -1.19922019409548 231.1126911104452 30.220501844995397 1.9725 0 0 0      
61 3 -1.19922019409548 230.50301883275927 32.096416545567166 0.0 0 0 0      
62 1 1.20208405696422 232.9886058110169 30.83017412268123 0.0 0 0 0      
63 2 2.40156286175261 234.2548482339029 33.31576110093886 1.9725 0 0 0      
64 3 -1.19922019409548 232.37893353333104 32.706088823253 1.9725 0 0 0      
65 3 -1.19922019409548 234.86452051158875 31.43984640036706 1.9725 0 0 0      
66 3 -1.19922019409548 234.2548482339029 33.31576110093886 0.0 0 0 0      
67 1 1.20208405696422 236.74043521216052 32.04951867805289 0.0 0 0 0      
68 3 -1.19922019409548 236.13076293447472 33.92543337862469 1.9725 0 0 0      
69 2 2.40156286175261 195.5172096670953 24.874144948365768 1.9725 0 0 0      
70 3 -1.19922019409548 193.6412949665236 24.264472670679936 1.9725 0 0 0      
71 3 -1.19922019409548 195.5172096670953 24.874144948365768 0.0 0 0 0      
72 2 2.40156286175261 199.2690390682389 26.09348950373743 1.9725 0 0 0      
73 3 -1.19922019409548 197.3931243676671 25.4838172260516 1.9725 0 0 0      
74 3 -1.19922019409548 199.8787113459248 24.217574803165633 1.9725 0 0 0      
75 3 -1.19922019409548 199.2690390682389 26.09348950373743 0.0 0 0 0      
76 1 1.20208405696422 201.75462604649655 24.827247080851492 0.0 0 0 0      
77 2 2.40156286175261 203.02086846938252 27.31283405910912 1.9725 0 0 0      
78 3 -1.19922019409548 201.14495376881075 26.70316178142329 1.9725 0 0 0      
79 3 -1.19922019409548 203.6305407470684 25.436919358537295 1.9725 0 0 0      
80 3 -1.19922019409548 203.02086846938252 27.31283405910912 0.0 0 0 0      
81 1 1.20208405696422 205.50645544764015 26.046591636223127 0.0 0 0 0      
82 2 2.40156286175261 206.7726978705261 28.532178614480785 1.9725 0 0 0      
83 3 -1.19922019409548 204.8967831699543 27.922506336794953 1.9725 0 0 0      
84 3 -1.19922019409548 207.382370148212 26.65626391390896 1.9725 0 0 0      
85 3 -1.19922019409548 206.7726978705261 28.532178614480785 0.0 0 0 0      
86 1 1.20208405696422 209.25828484878377 27.26593619159479 0.0 0 0 0      
87 2 2.40156286175261 210.52452727166968 29.751523169852447 1.9725 0 0 0      
88 3 -1.19922019409548 208.64861257109789 29.141850892166616 1.9725 0 0 0      
89 3 -1.19922019409548 211.1341995493556 27.87560846928062 1.9725 0 0 0      
90 3 -1.19922019409548 210.52452727166968 29.751523169852447 0.0 0 0 0      
91 1 1.20208405696422 213.01011424992737 28.485280746966453 0.0 0 0 0      
92 2 2.40156286175261 214.27635667281328 30.97086772522411 1.9725 0 0 0      
93 3 -1.19922019409548 212.40044197224148 30.36119544753828 1.9725 0 0 0      
94 3 -1.19922019409548 214.8860289504991 29.094953024652284 1.9725 0 0 0      
95 3 -1.19922019409548 214.27635667281328 30.97086772522411 0.0 0 0 0      
96 1 1.20208405696422 216.7619436510709 29.704625302338115 0.0 0 0 0      
97 2 2.40156286175261 218.02818607395687 32.1902122805958 1.9725 0 0 0      
98 3 -1.19922019409548 216.15227137338508 31.58054000290994 1.9725 0 0 0      
99 3 -1.19922019409548 218.6378583516428 30.314297580023975 1.9725 0 0 0      
100 3 -1.19922019409548 218.02818607395687 32.1902122805958 0.0 0 0 0      
101 1 1.20208405696422 220.51377305221456 30.923969857709807 0.0 0 0 0      
102 2 2.40156286175261 221.78001547510047 33.409556835967464 1.9725 0 0 0      
103 3 -1.19922019409548 219.90410077452867 32.79988455828163 1.9725 0 0 0      
104 3 -1.19922019409548 222.3896877527863 31.533642135395638 1.9725 0 0 0      
105 3 -1.19922019409548 221.78001547510047 33.409556835967464 0.0 0 0 0      
106 1 1.20208405696422 224.2656024533581 32.14331441308147 0.0 0 0 0      
107 2 2.40156286175261 225.5318448762441 34.62890139133913 1.9725 0 0 0      
108 3 -1.19922019409548 223.65593017567227 34.019229113653296 1.9725 0 0 0      
109 3 -1.19922019409548 226.1415171539299 32.7529866907673 1.9725 0 0 0      
110 3 -1.19922019409548 225.5318448762441 34.62890139133913 0.0 0 0 0      
111 1 1.20208405696422 228.0174318545017 33.36265896845313 0.0 0 0 0      
112 2 2.40156286175261 229.2836742773877 35.84824594671079 1.9725 0 0 0      
113 3 -1.19922019409548 227.40775957681583 35.23857366902496 1.9725 0 0 0      
114 3 -1.19922019409548 229.8933465550735 33.972331246138964 1.9725 0 0 0      
115 3 -1.19922019409548 229.2836742773877 35.84824594671079 0.0 0 0 0      
116 1 1.20208405696422 231.76926125564523 34.582003523824795 0.0 0 0 0      
117 2 2.40156286175261 233.03550367853128 37.06759050208245 1.9725 0 0 0      
118 3 -1.19922019409548 231.1595889779594 36.45791822439662 1.9725 0 0 0      
119 3 -1.19922019409548 233.6451759562171 35.191675801510655 1.9725 0 0 0      
120 3 -1.19922019409548 233.03550367853128 37.06759050208245 0.0 0 0 0      
121 1 1.20208405696422 235.52109065678889 35.80134807919649 0.0 0 0 0      
122 2 2.40156286175261 236.78733307967485 38.286935057454116 1.9725 0 0 0      
123 3 -1.19922019409548 234.91141837910305 37.677262779768284 1.9725 0 0 0      
124 3 -1.19922019409548 237.39700535736068 36.41102035688232 1.9725 0 0 0      
125 3 -1.19922019409548 236.78733307967485 38.286935057454116 0.0 0 0 0      
126 2 2.40156286175261 183.0423769082929 24.967940683394374 1.9725 0 0 0      
127 3 -1.19922019409548 181.1664622077211 24.358268405708543 1.9725 0 0 0      
128 3 -1.19922019409548 183.0423769082929 24.967940683394374 0.0 0 0 0      
129 2 2.40156286175261 186.7942063094365 26.187285238766037 1.9725 0 0 0      
130 3 -1.19922019409548 184.9182916088647 25.577612961080206 1.9725 0 0 0      
131 3 -1.19922019409548 187.40387858712236 24.31137053819424 1.9725 0 0 0      
132 3 -1.19922019409548 186.7942063094365 26.187285238766037 0.0 0 0 0      
133 1 1.20208405696422 189.27979328769413 24.92104281588007 0.0 0 0 0      
134 2 2.40156286175261 190.5460357105801 27.4066297941377 1.9725 0 0 0      
135 3 -1.19922019409548 188.6701210100083 26.79695751645187 1.9725 0 0 0      
136 3 -1.19922019409548 191.15570798826596 25.530715093565902 1.9725 0 0 0      
137 3 -1.19922019409548 190.5460357105801 27.4066297941377 0.0 0 0 0      
138 1 1.20208405696422 193.03162268883773 26.140387371251734 0.0 0 0 0      
139 2 2.40156286175261 194.29786511172364 28.625974349509363 1.9725 0 0 0      
140 3 -1.19922019409548 192.4219504111519 28.01630207182353 1.9725 0 0 0      
141 3 -1.19922019409548 194.90753738940955 26.750059648937565 1.9725 0 0 0      
142 3 -1.19922019409548 194.29786511172364 28.625974349509363 0.0 0 0 0      
143 1 1.20208405696422 196.78345208998127 27.359731926623397 0.0 0 0 0      
144 2 2.40156286175261 198.04969451286723 29.845318904881026 1.9725 0 0 0      
145 3 -1.19922019409548 196.17377981229544 29.235646627195194 1.9725 0 0 0      
146 3 -1.19922019409548 198.65936679055312 27.969404204309228 1.9725 0 0 0      
147 3 -1.19922019409548 198.04969451286723 29.845318904881026 0.0 0 0 0      
148 1 1.20208405696422 200.5352814911249 28.57907648199506 0.0 0 0 0      
149 2 2.40156286175261 201.8015239140109 31.06466346025269 1.9725 0 0 0      
150 3 -1.19922019409548 199.9256092134391 30.454991182566857 1.9725 0 0 0      
151 3 -1.19922019409548 202.41119619169672 29.18874875968089 1.9725 0 0 0      
152 3 -1.19922019409548 201.8015239140109 31.06466346025269 0.0 0 0 0      
153 1 1.20208405696422 204.2871108922685 29.798421037366722 0.0 0 0 0      
154 2 2.40156286175261 205.5533533151544 32.28400801562435 1.9725 0 0 0      
155 3 -1.19922019409548 203.67743861458263 31.67433573793852 1.9725 0 0 0      
156 3 -1.19922019409548 206.1630255928403 30.408093315052554 1.9725 0 0 0      
157 3 -1.19922019409548 205.5533533151544 32.28400801562435 0.0 0 0 0      
158 1 1.20208405696422 208.0389402934121 31.017765592738385 0.0 0 0 0      
159 2 2.40156286175261 209.305182716298 33.503352570996014 1.9725 0 0 0      
160 3 -1.19922019409548 207.42926801572625 32.89368029331018 1.9725 0 0 0      
161 3 -1.19922019409548 209.9148549939839 31.627437870424217 1.9725 0 0 0      
162 3 -1.19922019409548 209.305182716298 33.503352570996014 0.0 0 0 0      
163 1 1.20208405696422 211.7907696945557 32.23711014811005 0.0 0 0 0      
164 2 2.40156286175261 213.0570121174416 34.72269712636768 1.9725 0 0 0      
165 3 -1.19922019409548 211.18109741686985 34.113024848681846 1.9725 0 0 0      
166 3 -1.19922019409548 213.66668439512745 32.84678242579588 1.9725 0 0 0      
167 3 -1.19922019409548 213.0570121174416 34.72269712636768 0.0 0 0 0      
168 1 1.20208405696422 215.54259909569925 33.45645470348174 0.0 0 0 0      
169 2 2.40156286175261 216.8088415185852 35.94204168173937 1.9725 0 0 0      
170 3 -1.19922019409548 214.9329268180134 35.33236940405354 1.9725 0 0 0      
171 3 -1.19922019409548 217.4185137962711 34.06612698116757 1.9725 0 0 0      
172 3 -1.19922019409548 216.8088415185852 35.94204168173937 0.0 0 0 0      
173 1 1.20208405696422 219.2944284968429 34.6757992588534 0.0 0 0 0      
174 2 2.40156286175261 220.5606709197288 37.16138623711103 1.9725 0 0 0      
175 3 -1.19922019409548 218.684756219157 36.5517139594252 1.9725 0 0 0      
176 3 -1.19922019409548 221.17034319741464 35.285471536539234 1.9725 0 0 0      
177 3 -1.19922019409548 220.5606709197288 37.16138623711103 0.0 0 0 0      
178 1 1.20208405696422 223.04625789798644 35.895143814225065 0.0 0 0 0      
179 2 2.40156286175261 224.3125003208724 38.380730792482694 1.9725 0 0 0      
180 3 -1.19922019409548 222.4365856203006 37.77105851479686 1.9725 0 0 0      
181 3 -1.19922019409548 224.92217259855823 36.5048160919109 1.9725 0 0 0      
182 3 -1.19922019409548 224.3125003208724 38.380730792482694 0.0 0 0 0      
183 1 1.20208405696422 226.79808729913003 37.11448836959673 0.0 0 0 0      
184 2 2.40156286175261 228.064329722016 39.60007534785436 1.9725 0 0 0      
185 3 -1.19922019409548 226.1884150214442 38.990403070168526 1.9725 0 0 0      
186 3 -1.19922019409548 228.67400199970183 37.72416064728256 1.9725 0 0 0      
187 3 -1.19922019409548 228.064329722016 39.60007534785436 0.0 0 0 0      
188 1 1.20208405696422 230.5499167002736 38.33383292496839 0.0 0 0 0      
189 2 2.40156286175261 231.8161591231596 40.81941990322605 1.9725 0 0 0      
190 3 -1.19922019409548 229.9402444225877 40.20974762554019 1.9725 0 0 0      
191 3 -1.19922019409548 232.42583140084545 38.94350520265425 1.9725 0 0 0      
192 3 -1.19922019409548 231.8161591231596 40.81941990322605 0.0 0 0 0      
193 1 1.20208405696422 234.3017461014172 39.55317748034008 0.0 0 0 0      
194 2 2.40156286175261 235.5679885243032 42.03876445859771 1.9725 0 0 0      
195 3 -1.19922019409548 233.6920738237314 41.42909218091188 1.9725 0 0 0      
196 3 -1.19922019409548 236.17766080198905 40.162849758025914 1.9725 0 0 0      
197 3 -1.19922019409548 235.5679885243032 42.03876445859771 0.0 0 0 0      
198 3 -1.19922019409548 237.443903224875 42.64843673628354 1.9725 0 0 0      
199 3 -1.19922019409548 236.0838650669604 114.82425484078334 5.917499999999999 0 0 0      
200 3 -1.19922019409548 234.8176226440744 117.30984181904097 5.917499999999999 0 0 0      
201 2 2.40156286175261 170.56754414949046 25.061736418422953 1.9725 0 0 0      
202 3 -1.19922019409548 168.69162944891866 24.45206414073712 1.9725 0 0 0      
203 3 -1.19922019409548 170.56754414949046 25.061736418422953 0.0 0 0 0      
204 2 2.40156286175261 236.69353734464624 116.70016954135514 5.917499999999999 0 0 0      
205 2 2.40156286175261 174.31937355063403 26.281080973794616 1.9725 0 0 0      
206 3 -1.19922019409548 172.44345885006226 25.671408696108784 1.9725 0 0 0      
207 3 -1.19922019409548 174.9290458283199 24.405166273222818 1.9725 0 0 0      
208 3 -1.19922019409548 174.31937355063403 26.281080973794616 0.0 0 0 0      
209 1 1.20208405696422 176.80496052889168 25.01483855090865 0.0 0 0 0      
210 2 2.40156286175261 178.07120295177765 27.500425529166307 1.9725 0 0 0      
211 3 -1.19922019409548 176.19528825120585 26.890753251480447 1.9725 0 0 0      
212 3 -1.19922019409548 178.68087522946348 25.62451082859448 1.9725 0 0 0      
213 3 -1.19922019409548 178.07120295177765 27.500425529166307 0.0 0 0 0      
214 1 1.20208405696422 180.55678993003528 26.234183106280312 0.0 0 0 0      
215 2 2.40156286175261 181.82303235292125 28.71977008453797 1.9725 0 0 0      
216 3 -1.19922019409548 179.94711765234945 28.11009780685214 1.9725 0 0 0      
217 3 -1.19922019409548 182.43270463060708 26.843855383966144 1.9725 0 0 0      
218 3 -1.19922019409548 181.82303235292125 28.71977008453797 0.0 0 0 0      
219 1 1.20208405696422 184.30861933117887 27.453527661651975 0.0 0 0 0      
220 2 2.40156286175261 185.57486175406484 29.939114639909633 1.9725 0 0 0      
221 3 -1.19922019409548 183.69894705349304 29.3294423622238 1.9725 0 0 0      
222 3 -1.19922019409548 186.18453403175067 28.063199939337807 1.9725 0 0 0      
223 3 -1.19922019409548 185.57486175406484 29.939114639909633 0.0 0 0 0      
224 1 1.20208405696422 188.06044873232247 28.672872217023638 0.0 0 0 0      
225 2 2.40156286175261 189.32669115520844 31.158459195281296 1.9725 0 0 0      
226 3 -1.19922019409548 187.45077645463664 30.548786917595464 1.9725 0 0 0      
227 3 -1.19922019409548 189.93636343289427 29.282544494709498 1.9725 0 0 0      
228 3 -1.19922019409548 189.32669115520844 31.158459195281296 0.0 0 0 0      
229 1 1.20208405696422 191.81227813346607 29.89221677239533 0.0 0 0 0      
230 2 2.40156286175261 193.078520556352 32.37780375065296 1.9725 0 0 0      
231 3 -1.19922019409548 191.20260585578023 31.768131472967127 1.9725 0 0 0      
232 3 -1.19922019409548 193.6881928340378 30.50188905008116 1.9725 0 0 0      
233 3 -1.19922019409548 193.078520556352 32.37780375065296 0.0 0 0 0      
234 1 1.20208405696422 195.5641075346096 31.111561327766992 0.0 0 0 0      
235 2 2.40156286175261 196.8303499574956 33.59714830602462 1.9725 0 0 0      
236 3 -1.19922019409548 194.95443525692377 32.98747602833879 1.9725 0 0 0      
237 3 -1.19922019409548 197.4400222351814 31.721233605452824 1.9725 0 0 0      
238 3 -1.19922019409548 196.8303499574956 33.59714830602462 0.0 0 0 0      
239 1 1.20208405696422 199.31593693575329 32.330905883138655 0.0 0 0 0      
240 2 2.40156286175261 200.5821793586392 34.816492861396284 1.9725 0 0 0      
241 3 -1.19922019409548 198.70626465806745 34.20682058371045 1.9725 0 0 0      
242 3 -1.19922019409548 201.19185163632503 32.94057816082449 1.9725 0 0 0      
243 3 -1.19922019409548 200.5821793586392 34.816492861396284 0.0 0 0 0      
244 1 1.20208405696422 203.0677663368968 33.55025043851032 0.0 0 0 0      
245 2 2.40156286175261 204.3340087597828 36.03583741676795 1.9725 0 0 0      
246 3 -1.19922019409548 202.45809405921096 35.426165139082116 1.9725 0 0 0      
247 3 -1.19922019409548 204.9436810374686 34.15992271619615 1.9725 0 0 0      
248 3 -1.19922019409548 204.3340087597828 36.03583741676795 0.0 0 0 0      
249 1 1.20208405696422 206.8195957380404 34.76959499388198 0.0 0 0 0      
250 2 2.40156286175261 208.0858381609264 37.25518197213961 1.9725 0 0 0      
251 3 -1.19922019409548 206.20992346035456 36.64550969445378 1.9725 0 0 0      
252 3 -1.19922019409548 208.6955104386122 35.37926727156781 1.9725 0 0 0      
253 3 -1.19922019409548 208.0858381609264 37.25518197213961 0.0 0 0 0      
254 1 1.20208405696422 210.571425139184 35.988939549253644 0.0 0 0 0      
255 2 2.40156286175261 211.8376675620699 38.47452652751127 1.9725 0 0 0      
256 3 -1.19922019409548 209.96175286149816 37.86485424982544 1.9725 0 0 0      
257 3 -1.19922019409548 212.44733983975576 36.598611826939475 1.9725 0 0 0      
258 3 -1.19922019409548 211.8376675620699 38.47452652751127 0.0 0 0 0      
259 1 1.20208405696422 214.3232545403276 37.20828410462531 0.0 0 0 0      
260 2 2.40156286175261 215.58949696321355 39.693871082882964 1.9725 0 0 0      
261 3 -1.19922019409548 213.7135822626417 39.084198805197104 1.9725 0 0 0      
262 3 -1.19922019409548 216.19916924089935 37.81795638231114 1.9725 0 0 0      
263 3 -1.19922019409548 215.58949696321355 39.693871082882964 0.0 0 0 0      
264 1 1.20208405696422 218.0750839414712 38.42762865999697 0.0 0 0 0      
265 2 2.40156286175261 219.3413263643571 40.91321563825463 1.9725 0 0 0      
266 3 -1.19922019409548 217.46541166378532 40.303543360568796 1.9725 0 0 0      
267 3 -1.19922019409548 219.95099864204295 39.0373009376828 1.9725 0 0 0      
268 3 -1.19922019409548 219.3413263643571 40.91321563825463 0.0 0 0 0      
269 1 1.20208405696422 221.8269133426148 39.64697321536863 0.0 0 0 0      
270 2 2.40156286175261 223.09315576550068 42.13256019362629 1.9725 0 0 0      
271 3 -1.19922019409548 221.21724106492888 41.52288791594046 1.9725 0 0 0      
272 3 -1.19922019409548 223.70282804318657 40.256645493054464 1.9725 0 0 0      
273 3 -1.19922019409548 223.09315576550068 42.13256019362629 0.0 0 0 0      
274 1 1.20208405696422 225.5787427437584 40.866317770740324 0.0 0 0 0      
275 2 2.40156286175261 226.84498516664428 43.35190474899795 1.9725 0 0 0      
276 3 -1.19922019409548 224.96907046607248 42.74223247131212 1.9725 0 0 0      
277 3 -1.19922019409548 227.45465744433017 41.47599004842613 1.9725 0 0 0      
278 3 -1.19922019409548 226.84498516664428 43.35190474899795 0.0 0 0 0      
279 1 1.20208405696422 229.3305721449019 42.08566232611196 0.0 0 0 0      
280 2 2.40156286175261 230.59681456778787 44.571249304369644 1.9725 0 0 0      
281 3 -1.19922019409548 228.72089986721608 43.961577026683784 1.9725 0 0 0      
282 3 -1.19922019409548 231.20648684547376 42.69533460379782 1.9725 0 0 0      
283 3 -1.19922019409548 230.59681456778787 44.571249304369644 0.0 0 0 0      
284 1 1.20208405696422 233.0824015460456 43.30500688148365 0.0 0 0 0      
285 2 2.40156286175261 234.34864396893147 45.79059385974131 1.9725 0 0 0      
286 3 -1.19922019409548 232.47272926835967 45.180921582055475 1.9725 0 0 0      
287 3 -1.19922019409548 234.95831624661736 43.91467915916948 1.9725 0 0 0      
288 3 -1.19922019409548 234.34864396893147 45.79059385974131 0.0 0 0 0      
289 1 1.20208405696422 236.8342309471892 44.52435143685531 0.0 0 0 0      
290 3 -1.19922019409548 236.22455866950327 46.40026613742714 1.9725 0 0 0      
291 1 1.20208405696422 234.20795036638856 115.43392711846917 3.945 0 0 0      
292 2 2.40156286175261 158.092711390688 25.15553215345153 1.9725 0 0 0      
293 3 -1.19922019409548 156.2167966901162 24.5458598757657 1.9725 0 0 0      
294 3 -1.19922019409548 158.092711390688 25.15553215345153 0.0 0 0 0      
295 3 -1.19922019409548 232.3320356658168 116.043599396155 5.917499999999999 0 0 0      
296 2 2.40156286175261 161.8445407918316 26.374876708823194 1.9725 0 0 0      
297 3 -1.19922019409548 159.9686260912598 25.765204431137363 1.9725 0 0 0      
298 3 -1.19922019409548 162.45421306951744 24.498962008251397 1.9725 0 0 0      
299 3 -1.19922019409548 161.8445407918316 26.374876708823194 0.0 0 0 0      
300 1 1.20208405696422 164.33012777008923 25.108634285937228 0.0 0 0 0      
301 2 2.40156286175261 165.5963701929752 27.594221264194886 1.9725 0 0 0      
302 3 -1.19922019409548 163.7204554924034 26.984548986509026 1.9725 0 0 0      
303 3 -1.19922019409548 166.20604247066103 25.718306563623088 1.9725 0 0 0      
304 3 -1.19922019409548 165.5963701929752 27.594221264194886 0.0 0 0 0      
305 1 1.20208405696422 168.08195717123283 26.32797884130892 0.0 0 0 0      
306 2 2.40156286175261 169.3481995941188 28.81356581956655 1.9725 0 0 0      
307 3 -1.19922019409548 167.472284893547 28.203893541880717 1.9725 0 0 0      
308 3 -1.19922019409548 169.95787187180463 26.93765111899475 1.9725 0 0 0      
309 3 -1.19922019409548 169.3481995941188 28.81356581956655 0.0 0 0 0      
310 1 1.20208405696422 171.83378657237645 27.547323396680582 0.0 0 0 0      
311 2 2.40156286175261 173.1000289952624 30.03291037493821 1.9725 0 0 0      
312 3 -1.19922019409548 171.2241142946906 29.42323809725238 1.9725 0 0 0      
313 3 -1.19922019409548 173.70970127294822 28.156995674366385 1.9725 0 0 0      
314 3 -1.19922019409548 173.1000289952624 30.03291037493821 0.0 0 0 0      
315 1 1.20208405696422 175.58561597352002 28.766667952052217 0.0 0 0 0      
316 2 2.40156286175261 176.851858396406 31.252254930309874 1.9725 0 0 0      
317 3 -1.19922019409548 174.9759436958342 30.642582652624043 1.9725 0 0 0      
318 3 -1.19922019409548 177.46153067409182 29.376340229738076 1.9725 0 0 0      
319 3 -1.19922019409548 176.851858396406 31.252254930309874 0.0 0 0 0      
320 1 1.20208405696422 179.33744537466362 29.986012507423908 0.0 0 0 0      
321 2 2.40156286175261 180.6036877975496 32.47159948568154 1.9725 0 0 0      
322 3 -1.19922019409548 178.72777309697778 31.861927207995706 1.9725 0 0 0      
323 3 -1.19922019409548 181.2133600752354 30.59568478510974 1.9725 0 0 0      
324 3 -1.19922019409548 180.6036877975496 32.47159948568154 0.0 0 0 0      
325 1 1.20208405696422 183.0892747758072 31.20535706279557 0.0 0 0 0      
326 2 2.40156286175261 184.3555171986932 33.6909440410532 1.9725 0 0 0      
327 3 -1.19922019409548 182.47960249812135 33.08127176336737 1.9725 0 0 0      
328 3 -1.19922019409548 184.965189476379 31.815029340481402 1.9725 0 0 0      
329 3 -1.19922019409548 184.3555171986932 33.6909440410532 0.0 0 0 0      
330 1 1.20208405696422 186.8411041769508 32.424701618167234 0.0 0 0 0      
331 2 2.40156286175261 188.1073465998368 34.91028859642489 1.9725 0 0 0      
332 3 -1.19922019409548 186.23143189926495 34.30061631873903 1.9725 0 0 0      
333 3 -1.19922019409548 188.7170188775226 33.03437389585309 1.9725 0 0 0      
334 3 -1.19922019409548 188.1073465998368 34.91028859642489 0.0 0 0 0      
335 1 1.20208405696422 190.5929335780944 33.644046173538925 0.0 0 0 0      
336 2 2.40156286175261 191.8591760009803 36.129633151796554 1.9725 0 0 0      
337 3 -1.19922019409548 189.98326130040857 35.51996087411072 1.9725 0 0 0      
338 3 -1.19922019409548 192.46884827866612 34.253718451224756 1.9725 0 0 0      
339 3 -1.19922019409548 191.8591760009803 36.129633151796554 0.0 0 0 0      
340 1 1.20208405696422 194.34476297923797 34.86339072891059 0.0 0 0 0      
341 2 2.40156286175261 195.6110054021239 37.34897770716822 1.9725 0 0 0      
342 3 -1.19922019409548 193.7350907015521 36.739305429482386 1.9725 0 0 0      
343 3 -1.19922019409548 196.2206776798097 35.47306300659642 1.9725 0 0 0      
344 3 -1.19922019409548 195.6110054021239 37.34897770716822 0.0 0 0 0      
345 1 1.20208405696422 198.0965923803816 36.08273528428225 0.0 0 0 0      
346 2 2.40156286175261 199.3628348032676 38.56832226253988 1.9725 0 0 0      
347 3 -1.19922019409548 197.48692010269576 37.95864998485405 1.9725 0 0 0      
348 3 -1.19922019409548 199.9725070809534 36.69240756196808 1.9725 0 0 0      
349 3 -1.19922019409548 199.3628348032676 38.56832226253988 0.0 0 0 0      
350 1 1.20208405696422 201.84842178152516 37.30207983965391 0.0 0 0 0      
351 2 2.40156286175261 203.1146642044111 39.78766681791154 1.9725 0 0 0      
352 3 -1.19922019409548 201.2387495038393 39.17799454022571 1.9725 0 0 0      
353 3 -1.19922019409548 203.72433648209693 37.911752117339745 1.9725 0 0 0      
354 3 -1.19922019409548 203.1146642044111 39.78766681791154 0.0 0 0 0      
355 1 1.20208405696422 205.60025118266876 38.521424395025576 0.0 0 0 0      
356 2 2.40156286175261 206.8664936055547 41.007011373283206 1.9725 0 0 0      
357 3 -1.19922019409548 204.9905789049829 40.397339095597374 1.9725 0 0 0      
358 3 -1.19922019409548 207.47616588324053 39.13109667271141 1.9725 0 0 0      
359 3 -1.19922019409548 206.8664936055547 41.007011373283206 0.0 0 0 0      
360 1 1.20208405696422 209.35208058381232 39.74076895039724 0.0 0 0 0      
361 2 2.40156286175261 210.61832300669823 42.22635592865487 1.9725 0 0 0      
362 3 -1.19922019409548 208.7424083061265 41.61668365096904 1.9725 0 0 0      
363 3 -1.19922019409548 211.2279952843841 40.35044122808307 1.9725 0 0 0      
364 3 -1.19922019409548 210.61832300669823 42.22635592865487 0.0 0 0 0      
365 1 1.20208405696422 213.10390998495583 40.9601135057689 0.0 0 0 0      
366 2 2.40156286175261 214.37015240784189 43.44570048402653 1.9725 0 0 0      
367 3 -1.19922019409548 212.49423770727003 42.8360282063407 1.9725 0 0 0      
368 3 -1.19922019409548 214.9798246855277 41.56978578345473 1.9725 0 0 0      
369 3 -1.19922019409548 214.37015240784189 43.44570048402653 0.0 0 0 0      
370 1 1.20208405696422 216.85573938609951 42.179458061140565 0.0 0 0 0      
371 2 2.40156286175261 218.12198180898545 44.665045039398194 1.9725 0 0 0      
372 3 -1.19922019409548 216.24606710841368 44.05537276171236 1.9725 0 0 0      
373 3 -1.19922019409548 218.73165408667128 42.789130338826396 1.9725 0 0 0      
374 3 -1.19922019409548 218.12198180898545 44.665045039398194 0.0 0 0 0      
375 1 1.20208405696422 220.60756878724305 43.39880261651223 0.0 0 0 0      
376 2 2.40156286175261 221.87381121012905 45.88438959476986 1.9725 0 0 0      
377 3 -1.19922019409548 219.9978965095572 45.274717317084026 1.9725 0 0 0      