LAMMPS data file via write_data, version 19 Nov 2024, timestep = 0, units =.1 metal
              
17484 atoms             
3 atom types            
              
0 32.1729231379734 xlo xhi           
-142.512271840007 142.512271840007 ylo yhi           
0 23.67 zlo zhi           
              
Masses              
              
1 87.62             
2 47.867             
3 15.999             
              
Atoms # charge            
              
1 3 -1.20038243626062 30.765001089377435 -74.43484337504009 21.6975 0 0 0      
2 2 2.39923599320883 31.37467336706328 -69.95334316553846 1.9724999999999968 0 0 0      
3 3 -1.20038243626062 29.498758666491483 -70.56301544322432 1.9724999999999968 0 0 0      
4 3 -1.20038243626062 31.37467336706328 -69.95334316553846 0.0 0 0 0      
5 2 2.39923599320883 18.89984060826083 -69.85954743050988 1.9724999999999968 0 0 0      
6 3 -1.20038243626062 17.023925907689033 -70.46921970819571 1.9724999999999968 0 0 0      
7 3 -1.20038243626062 18.89984060826083 -69.85954743050988 0.0 0 0 0      
8 1 1.19898132427844 28.88908638880564 -73.82517109735426 19.725 0 0 0      
9 2 2.39923599320883 22.651670009404427 -68.64020287513821 1.9724999999999968 0 0 0      
10 3 -1.20038243626062 20.77575530883263 -69.24987515282405 1.9724999999999968 0 0 0      
11 3 -1.20038243626062 23.261342287090255 -70.51611757570998 1.9724999999999968 0 0 0      
12 3 -1.20038243626062 22.651670009404427 -68.64020287513821 0.0 0 0 0      
13 1 1.19898132427844 25.13725698766205 -69.90644529802418 0.0 0 0 0      
14 2 2.39923599320883 26.403499410548008 -67.42085831976655 1.9724999999999968 0 0 0      
15 3 -1.20038243626062 24.527584709976217 -68.03053059745241 1.9724999999999968 0 0 0      
16 3 -1.20038243626062 27.01317168823384 -69.29677302033835 1.9724999999999968 0 0 0      
17 3 -1.20038243626062 26.403499410548008 -67.42085831976655 0.0 0 0 0      
18 1 1.19898132427844 28.88908638880564 -68.68710074265252 0.0 0 0 0      
19 2 2.39923599320883 30.155328811691604 -66.20151376439486 1.9724999999999968 0 0 0      
20 3 -1.20038243626062 28.27941411111981 -66.81118604208072 1.9724999999999968 0 0 0      
21 3 -1.20038243626062 30.765001089377435 -68.07742846496666 1.9724999999999968 0 0 0      
22 3 -1.20038243626062 30.155328811691604 -66.20151376439486 0.0 0 0 0      
23 3 -1.20038243626062 32.031243512263394 -65.59184148670903 1.9724999999999968 0 0 0      
24 2 2.39923599320883 2.6731784483148004 -70.98509625085293 1.9724999999999968 0 0 0      
25 3 -1.20038243626062 2.6731784483148004 -70.98509625085293 0.0 0 0 0      
26 2 2.39923599320883 6.425007849458396 -69.76575169548127 1.9724999999999968 0 0 0      
27 3 -1.20038243626062 4.549093148886598 -70.3754239731671 1.9724999999999968 0 0 0      
28 3 -1.20038243626062 6.425007849458396 -69.76575169548127 0.0 0 0 0      
29 2 2.39923599320883 10.176837250601992 -68.54640714010961 1.9724999999999968 0 0 0      
30 3 -1.20038243626062 8.300922550030194 -69.15607941779544 1.9724999999999968 0 0 0      
31 3 -1.20038243626062 10.786509528287825 -70.4223218406814 1.9724999999999968 0 0 0      
32 3 -1.20038243626062 10.176837250601992 -68.54640714010961 0.0 0 0 0      
33 1 1.19898132427844 12.66242422885962 -69.81264956299557 0.0 0 0 0      
34 2 2.39923599320883 13.928666651745589 -67.32706258473794 1.9724999999999968 0 0 0      
35 3 -1.20038243626062 12.05275195117379 -67.93673486242378 1.9724999999999968 0 0 0      
36 3 -1.20038243626062 14.538338929431418 -69.20297728530974 1.9724999999999968 0 0 0      
37 3 -1.20038243626062 13.928666651745589 -67.32706258473794 0.0 0 0 0      
38 1 1.19898132427844 16.414253630003202 -68.59330500762391 0.0 0 0 0      
39 2 2.39923599320883 17.68049605288917 -66.10771802936628 1.9724999999999968 0 0 0      
40 3 -1.20038243626062 15.80458135231737 -66.71739030705211 1.9724999999999968 0 0 0      
41 3 -1.20038243626062 18.290168330575 -67.98363272993808 1.9724999999999968 0 0 0      
42 3 -1.20038243626062 17.68049605288917 -66.10771802936628 0.0 0 0 0      
43 1 1.19898132427844 20.1660830311468 -67.37396045225225 0.0 0 0 0      
44 2 2.39923599320883 21.432325454032764 -64.88837347399462 1.9724999999999968 0 0 0      
45 3 -1.20038243626062 19.55641075346097 -65.49804575168045 1.9724999999999968 0 0 0      
46 3 -1.20038243626062 22.041997731718595 -66.76428817456642 1.9724999999999968 0 0 0      
47 3 -1.20038243626062 21.432325454032764 -64.88837347399462 0.0 0 0 0      
48 1 1.19898132427844 23.917912432290382 -66.15461589688059 0.0 0 0 0      
49 2 2.39923599320883 25.184154855176345 -63.669028918622956 1.9724999999999968 0 0 0      
50 3 -1.20038243626062 23.308240154604555 -64.27870119630879 1.9724999999999968 0 0 0      
51 3 -1.20038243626062 25.793827132862177 -65.54494361919475 1.9724999999999968 0 0 0      
52 3 -1.20038243626062 25.184154855176345 -63.669028918622956 0.0 0 0 0      
53 1 1.19898132427844 27.66974183343397 -64.93527134150892 0.0 0 0 0      
54 2 2.39923599320883 28.93598425631994 -62.449684363251265 1.9724999999999968 0 0 0      
55 3 -1.20038243626062 27.060069555748143 -63.059356640937125 1.9724999999999968 0 0 0      
56 3 -1.20038243626062 29.54565653400577 -64.32559906382306 1.9724999999999968 0 0 0      
57 3 -1.20038243626062 28.93598425631994 -62.449684363251265 0.0 0 0 0      
58 1 1.19898132427844 31.421571234577563 -63.71592678613723 0.0 0 0 0      
59 3 -1.20038243626062 30.81189895689173 -61.840012085565434 1.9724999999999968 0 0 0      
60 1 1.19898132427844 0.1875914700571854 -69.718853827967 0.0 0 0 0      
61 2 2.39923599320883 1.4538338929431376 -67.23326684970937 1.9724999999999968 0 0 0      
62 3 -1.20038243626062 2.063506170628969 -69.10918155028116 1.9724999999999968 0 0 0      
63 3 -1.20038243626062 1.4538338929431376 -67.23326684970937 0.0 0 0 0      
64 1 1.19898132427844 3.939420871200767 -68.4995092725953 0.0 0 0 0      
65 2 2.39923599320883 5.205663294086733 -66.0139222943377 1.9724999999999968 0 0 0      
66 3 -1.20038243626062 3.329748593514936 -66.62359457202353 1.9724999999999968 0 0 0      
67 3 -1.20038243626062 5.8153355717725645 -67.8898369949095 1.9724999999999968 0 0 0      
68 3 -1.20038243626062 5.205663294086733 -66.0139222943377 0.0 0 0 0      
69 1 1.19898132427844 7.691250272344362 -67.28016471722367 0.0 0 0 0      
70 2 2.39923599320883 8.957492695230329 -64.79457773896604 1.9724999999999968 0 0 0      
71 3 -1.20038243626062 7.081577994658531 -65.40425001665187 1.9724999999999968 0 0 0      
72 3 -1.20038243626062 9.56716497291616 -66.67049243953784 1.9724999999999968 0 0 0      
73 3 -1.20038243626062 8.957492695230329 -64.79457773896604 0.0 0 0 0      
74 1 1.19898132427844 11.443079673487958 -66.060820161852 0.0 0 0 0      
75 2 2.39923599320883 12.709322096373924 -63.57523318359438 1.9724999999999968 0 0 0      
76 3 -1.20038243626062 10.833407395802126 -64.18490546128021 1.9724999999999968 0 0 0      
77 3 -1.20038243626062 13.318994374059756 -65.45114788416618 1.9724999999999968 0 0 0      
78 3 -1.20038243626062 12.709322096373924 -63.57523318359438 0.0 0 0 0      
79 1 1.19898132427844 15.19490907463154 -64.84147560648032 0.0 0 0 0      
80 2 2.39923599320883 16.461151497517506 -62.35588862822269 1.9724999999999968 0 0 0      
81 3 -1.20038243626062 14.585236796945708 -62.96556090590852 1.9724999999999968 0 0 0      
82 3 -1.20038243626062 17.070823775203337 -64.23180332879448 1.9724999999999968 0 0 0      
83 3 -1.20038243626062 16.461151497517506 -62.35588862822269 0.0 0 0 0      
84 1 1.19898132427844 18.94673847577513 -63.622131051108624 0.0 0 0 0      
85 2 2.39923599320883 20.2129808986611 -61.13654407285105 1.9724999999999968 0 0 0      
86 3 -1.20038243626062 18.337066198089303 -61.746216350536855 1.9724999999999968 0 0 0      
87 3 -1.20038243626062 20.82265317634693 -63.01245877342282 1.9724999999999968 0 0 0      
88 3 -1.20038243626062 20.2129808986611 -61.13654407285105 0.0 0 0 0      
89 1 1.19898132427844 22.698567876918723 -62.40278649573699 0.0 0 0 0      
90 2 2.39923599320883 23.96481029980468 -59.91719951747936 1.9724999999999968 0 0 0      
91 3 -1.20038243626062 22.08889559923289 -60.52687179516519 1.9724999999999968 0 0 0      
92 3 -1.20038243626062 24.574482577490517 -61.79311421805116 1.9724999999999968 0 0 0      
93 3 -1.20038243626062 23.96481029980468 -59.91719951747936 0.0 0 0 0      
94 1 1.19898132427844 26.45039727806231 -61.18344194036533 0.0 0 0 0      
95 2 2.39923599320883 27.71663970094828 -58.6978549621077 1.9724999999999968 0 0 0      
96 3 -1.20038243626062 25.84072500037648 -59.30752723979353 1.9724999999999968 0 0 0      
97 3 -1.20038243626062 28.32631197863411 -60.573769662679496 1.9724999999999968 0 0 0      
98 3 -1.20038243626062 27.71663970094828 -58.6978549621077 0.0 0 0 0      
99 1 1.19898132427844 30.2022266792059 -59.964097384993664 0.0 0 0 0      
100 2 2.39923599320883 31.468469102091863 -57.478510406736035 1.9724999999999968 0 0 0      
101 3 -1.20038243626062 29.59255440152007 -58.08818268442187 1.9724999999999968 0 0 0      
102 3 -1.20038243626062 32.0781413797777 -59.35442510730783 1.9724999999999968 0 0 0      
103 3 -1.20038243626062 31.468469102091863 -57.478510406736035 0.0 0 0 0      
104 2 2.39923599320883 0.2344893375714747 -63.48143744856577 1.9724999999999968 0 0 0      
105 3 -1.20038243626062 0.8441616152573062 -65.35735214913757 1.9724999999999968 0 0 0      
106 3 -1.20038243626062 0.2344893375714747 -63.48143744856577 0.0 0 0 0      
107 1 1.19898132427844 2.720076315829104 -64.74767987145174 0.0 0 0 0      
108 2 2.39923599320883 3.9863187387150703 -62.26209289319411 1.9724999999999968 0 0 0      
109 3 -1.20038243626062 2.1104040381432725 -62.87176517087994 1.9724999999999968 0 0 0      
110 3 -1.20038243626062 4.595991016400902 -64.1380075937659 1.9724999999999968 0 0 0      
111 3 -1.20038243626062 3.9863187387150703 -62.26209289319411 0.0 0 0 0      
112 1 1.19898132427844 6.4719057169727 -63.528335316080074 0.0 0 0 0      
113 2 2.39923599320883 7.738148139858652 -61.042748337822445 1.9724999999999968 0 0 0      
114 3 -1.20038243626062 5.862233439286868 -61.65242061550828 1.9724999999999968 0 0 0      
115 3 -1.20038243626062 8.347820417544497 -62.91866303839424 1.9724999999999968 0 0 0      
116 3 -1.20038243626062 7.738148139858652 -61.042748337822445 0.0 0 0 0      
117 1 1.19898132427844 10.223735118116297 -62.30899076070841 0.0 0 0 0      
118 2 2.39923599320883 11.489977541002249 -59.82340378245078 1.9724999999999968 0 0 0      
119 3 -1.20038243626062 9.61406284043045 -60.433076060136614 1.9724999999999968 0 0 0      
120 3 -1.20038243626062 12.099649818688093 -61.69931848302258 1.9724999999999968 0 0 0      
121 3 -1.20038243626062 11.489977541002249 -59.82340378245078 0.0 0 0 0      
122 1 1.19898132427844 13.975564519259876 -61.08964620533675 0.0 0 0 0      
123 2 2.39923599320883 15.241806942145828 -58.60405922707912 1.9724999999999968 0 0 0      
124 3 -1.20038243626062 13.365892241574045 -59.21373150476495 1.9724999999999968 0 0 0      
125 3 -1.20038243626062 15.851479219831674 -60.47997392765092 1.9724999999999968 0 0 0      
126 3 -1.20038243626062 15.241806942145828 -58.60405922707912 0.0 0 0 0      
127 1 1.19898132427844 17.727393920403472 -59.870301649965086 0.0 0 0 0      
128 2 2.39923599320883 18.993636343289424 -57.38471467170746 1.9724999999999968 0 0 0      
129 3 -1.20038243626062 17.117721642717626 -57.99438694939329 1.9724999999999968 0 0 0      
130 3 -1.20038243626062 19.60330862097527 -59.260629372279254 1.9724999999999968 0 0 0      
131 3 -1.20038243626062 18.993636343289424 -57.38471467170746 0.0 0 0 0      
132 1 1.19898132427844 21.47922332154706 -58.65095709459342 0.0 0 0 0      
133 2 2.39923599320883 22.74546574443302 -56.16537011633578 1.9724999999999968 0 0 0      
134 3 -1.20038243626062 20.86955104386122 -56.775042394021625 1.9724999999999968 0 0 0      
135 3 -1.20038243626062 23.35513802211885 -58.04128481690759 1.9724999999999968 0 0 0      
136 3 -1.20038243626062 22.74546574443302 -56.16537011633578 0.0 0 0 0      
137 1 1.19898132427844 25.23105272269065 -57.43161253922176 0.0 0 0 0      
138 2 2.39923599320883 26.497295145576608 -54.94602556096412 1.9724999999999968 0 0 0      
139 3 -1.20038243626062 24.62138044500481 -55.55569783864996 1.9724999999999968 0 0 0      
140 3 -1.20038243626062 27.106967423262446 -56.8219402615359 1.9724999999999968 0 0 0      
141 3 -1.20038243626062 26.497295145576608 -54.94602556096412 0.0 0 0 0      
142 1 1.19898132427844 28.98288212383424 -56.21226798385008 0.0 0 0 0      
143 2 2.39923599320883 30.2491245467202 -53.726681005592454 1.9724999999999968 0 0 0      
144 3 -1.20038243626062 28.3732098461484 -54.336353283278285 1.9724999999999968 0 0 0      
145 3 -1.20038243626062 30.858796824406035 -55.60259570616424 1.9724999999999968 0 0 0      
146 3 -1.20038243626062 30.2491245467202 -53.726681005592454 0.0 0 0 0      
147 3 -1.20038243626062 32.125039247291994 -53.11700872790662 1.9724999999999968 0 0 0      
148 1 1.19898132427844 1.500731760457441 -60.99585047030814 0.0 0 0 0      
149 2 2.39923599320883 2.7669741833434074 -58.51026349205051 1.9724999999999968 0 0 0      
150 3 -1.20038243626062 0.8910594827716096 -59.119935769736344 1.9724999999999968 0 0 0      
151 3 -1.20038243626062 3.376646461029239 -60.38617819262231 1.9724999999999968 0 0 0      
152 3 -1.20038243626062 2.7669741833434074 -58.51026349205051 0.0 0 0 0      
153 1 1.19898132427844 5.252561161601037 -59.77650591493648 0.0 0 0 0      
154 2 2.39923599320883 6.518803584486989 -57.29091893667885 1.9724999999999968 0 0 0      
155 3 -1.20038243626062 4.642888883915205 -57.90059121436468 1.9724999999999968 0 0 0      
156 3 -1.20038243626062 7.12847586217282 -59.16683363725065 1.9724999999999968 0 0 0      
157 3 -1.20038243626062 6.518803584486989 -57.29091893667885 0.0 0 0 0      
158 1 1.19898132427844 9.004390562744618 -58.557161359564816 0.0 0 0 0      
159 2 2.39923599320883 10.270632985630584 -56.0715743813072 1.9724999999999968 0 0 0      
160 3 -1.20038243626062 8.394718285058786 -56.68124665899302 1.9724999999999968 0 0 0      
161 3 -1.20038243626062 10.880305263316416 -57.947489081878985 1.9724999999999968 0 0 0      
162 3 -1.20038243626062 10.270632985630584 -56.0715743813072 0.0 0 0 0      
163 1 1.19898132427844 12.756219963888212 -57.33781680419315 0.0 0 0 0      
164 2 2.39923599320883 14.022462386774166 -54.852229825935524 1.9724999999999968 0 0 0      
165 3 -1.20038243626062 12.146547686202382 -55.461902103621355 1.9724999999999968 0 0 0      
166 3 -1.20038243626062 14.632134664459995 -56.72814452650732 1.9724999999999968 0 0 0      
167 3 -1.20038243626062 14.022462386774166 -54.852229825935524 0.0 0 0 0      
168 1 1.19898132427844 16.508049365031795 -56.118472248821476 0.0 0 0 0      
169 2 2.39923599320883 17.77429178791776 -53.63288527056386 1.9724999999999968 0 0 0      
170 3 -1.20038243626062 15.898377087345963 -54.24255754824969 1.9724999999999968 0 0 0      
171 3 -1.20038243626062 18.383964065603596 -55.50879997113566 1.9724999999999968 0 0 0      
172 3 -1.20038243626062 17.77429178791776 -53.63288527056386 0.0 0 0 0      
173 1 1.19898132427844 20.25987876617539 -54.89912769344981 0.0 0 0 0      
174 2 2.39923599320883 21.52612118906136 -52.4135407151922 1.9724999999999968 0 0 0      
175 3 -1.20038243626062 19.65020648848956 -53.023212992878015 1.9724999999999968 0 0 0      
176 3 -1.20038243626062 22.135793466747188 -54.28945541576398 1.9724999999999968 0 0 0      
177 3 -1.20038243626062 21.52612118906136 -52.4135407151922 0.0 0 0 0      
178 1 1.19898132427844 24.01170816731898 -53.679783138078164 0.0 0 0 0      
179 2 2.39923599320883 25.277950590204945 -51.19419615982052 1.9724999999999968 0 0 0      
180 3 -1.20038243626062 23.402035889633147 -51.80386843750635 1.9724999999999968 0 0 0      
181 3 -1.20038243626062 25.887622867890776 -53.07011086039232 1.9724999999999968 0 0 0      
182 3 -1.20038243626062 25.277950590204945 -51.19419615982052 0.0 0 0 0      
183 1 1.19898132427844 27.763537568462567 -52.46043858270647 0.0 0 0 0      
184 2 2.39923599320883 29.029779991348533 -49.97485160444886 1.9724999999999968 0 0 0      
185 3 -1.20038243626062 27.153865290776736 -50.584523882134675 1.9724999999999968 0 0 0      
186 3 -1.20038243626062 29.639452269034365 -51.850766305020656 1.9724999999999968 0 0 0      
187 3 -1.20038243626062 29.029779991348533 -49.97485160444886 0.0 0 0 0      
188 1 1.19898132427844 31.515366969606163 -51.24109402733484 0.0 0 0 0      
189 3 -1.20038243626062 30.90569469192033 -49.36517932676304 1.9724999999999968 0 0 0      
190 1 1.19898132427844 0.2813872050857782 -57.244021069164575 0.0 0 0 0      
191 2 2.39923599320883 1.5476296279717303 -54.75843409090692 1.9724999999999968 0 0 0      
192 3 -1.20038243626062 2.1573019056575617 -56.63434879147876 1.9724999999999968 0 0 0      
193 3 -1.20038243626062 1.5476296279717303 -54.75843409090692 0.0 0 0 0      
194 1 1.19898132427844 4.03321660622936 -56.0246765137929 0.0 0 0 0      
195 2 2.39923599320883 5.299459029115326 -53.539089535535254 1.9724999999999968 0 0 0      
196 3 -1.20038243626062 3.423544328543528 -54.14876181322107 1.9724999999999968 0 0 0      
197 3 -1.20038243626062 5.909131306801157 -55.41500423610708 1.9724999999999968 0 0 0      
198 3 -1.20038243626062 5.299459029115326 -53.539089535535254 0.0 0 0 0      
199 1 1.19898132427844 7.785046007372941 -54.805331958421235 0.0 0 0 0      
200 2 2.39923599320883 9.051288430258907 -52.31974498016359 1.9724999999999968 0 0 0      
201 3 -1.20038243626062 7.175373729687109 -52.92941725784942 1.9724999999999968 0 0 0      
202 3 -1.20038243626062 9.66096070794474 -54.1956596807354 1.9724999999999968 0 0 0      
203 3 -1.20038243626062 9.051288430258907 -52.31974498016359 0.0 0 0 0      
204 1 1.19898132427844 11.536875408516536 -53.58598740304956 0.0 0 0 0      
205 2 2.39923599320883 12.803117831402504 -51.100400424791914 1.9724999999999968 0 0 0      
206 3 -1.20038243626062 10.927203130830703 -51.71007270247776 1.9724999999999968 0 0 0      
207 3 -1.20038243626062 13.412790109088334 -52.97631512536374 1.9724999999999968 0 0 0      
208 3 -1.20038243626062 12.803117831402504 -51.100400424791914 0.0 0 0 0      
209 1 1.19898132427844 15.288704809660132 -52.36664284767792 0.0 0 0 0      
210 2 2.39923599320883 16.5549472325461 -49.88105586942028 1.9724999999999968 0 0 0      
211 3 -1.20038243626062 14.6790325319743 -50.4907281471061 1.9724999999999968 0 0 0      
212 3 -1.20038243626062 17.16461951023193 -51.75697056999208 1.9724999999999968 0 0 0      
213 3 -1.20038243626062 16.5549472325461 -49.88105586942028 0.0 0 0 0      
214 1 1.19898132427844 19.04053421080372 -51.14729829230623 0.0 0 0 0      
215 2 2.39923599320883 20.30677663368968 -48.6617113140486 1.9724999999999968 0 0 0      
216 3 -1.20038243626062 18.43086193311789 -49.27138359173442 1.9724999999999968 0 0 0      
217 3 -1.20038243626062 20.91644891137551 -50.5376260146204 1.9724999999999968 0 0 0      
218 3 -1.20038243626062 20.30677663368968 -48.6617113140486 0.0 0 0 0      
219 1 1.19898132427844 22.79236361194731 -49.927953736934555 0.0 0 0 0      
220 2 2.39923599320883 24.058606034833275 -47.44236675867691 1.9724999999999968 0 0 0      
221 3 -1.20038243626062 22.18269133426148 -48.05203903636276 1.9724999999999968 0 0 0      
222 3 -1.20038243626062 24.668278312519107 -49.31828145924874 1.9724999999999968 0 0 0      
223 3 -1.20038243626062 24.058606034833275 -47.44236675867691 0.0 0 0 0      
224 1 1.19898132427844 26.544193013090897 -48.70860918156292 0.0 0 0 0      
225 2 2.39923599320883 27.810435435976864 -46.22302220330526 1.9724999999999968 0 0 0      
226 3 -1.20038243626062 25.934520735405066 -46.832694480991094 1.9724999999999968 0 0 0      
227 3 -1.20038243626062 28.42010771366269 -48.098936903877075 1.9724999999999968 0 0 0      
228 3 -1.20038243626062 27.810435435976864 -46.22302220330526 0.0 0 0 0      
229 1 1.19898132427844 30.29602241423449 -47.48926462619124 0.0 0 0 0      
230 2 2.39923599320883 31.56226483712045 -45.0036776479336 1.9724999999999968 0 0 0      
231 3 -1.20038243626062 29.68635013654865 -45.61334992561943 1.9724999999999968 0 0 0      
232 3 -1.20038243626062 32.17193711480628 -46.8795923485054 1.9724999999999968 0 0 0      
233 3 -1.20038243626062 31.56226483712045 -45.0036776479336 0.0 0 0 0      
234 2 2.39923599320883 0.3282850726000532 -51.006604689763364 1.9724999999999968 0 0 0      
235 3 -1.20038243626062 0.9379573502858988 -52.88251939033513 1.9724999999999968 0 0 0      
236 3 -1.20038243626062 0.3282850726000532 -51.006604689763364 0.0 0 0 0      
237 1 1.19898132427844 2.8138720508576966 -52.27284711264927 0.0 0 0 0      
238 2 2.39923599320883 4.080114473743649 -49.78726013439167 1.9724999999999968 0 0 0      
239 3 -1.20038243626062 2.204199773171851 -50.396932412077504 1.9724999999999968 0 0 0      
240 3 -1.20038243626062 4.689786751429494 -51.663174834963456 1.9724999999999968 0 0 0      
241 3 -1.20038243626062 4.080114473743649 -49.78726013439167 0.0 0 0 0      
242 1 1.19898132427844 6.565701452001278 -51.05350255727764 0.0 0 0 0      
243 2 2.39923599320883 7.831943874887244 -48.567915579019996 1.9724999999999968 0 0 0      
244 3 -1.20038243626062 5.956029174315447 -49.17758785670584 1.9724999999999968 0 0 0      
245 3 -1.20038243626062 8.441616152573076 -50.44383027959179 1.9724999999999968 0 0 0      
246 3 -1.20038243626062 7.831943874887244 -48.567915579019996 0.0 0 0 0      
247 1 1.19898132427844 10.317530853144874 -49.83415800190596 0.0 0 0 0      
248 2 2.39923599320883 11.58377327603084 -47.34857102364836 1.9724999999999968 0 0 0      
249 3 -1.20038243626062 9.707858575459042 -47.95824330133418 1.9724999999999968 0 0 0      
250 3 -1.20038243626062 12.193445553716671 -49.224485724220116 1.9724999999999968 0 0 0      
251 3 -1.20038243626062 11.58377327603084 -47.34857102364836 0.0 0 0 0      
252 1 1.19898132427844 14.069360254288467 -48.6148134465343 0.0 0 0 0      
253 2 2.39923599320883 15.33560267717442 -46.129226468276684 1.9724999999999968 0 0 0      
254 3 -1.20038243626062 13.459687976602623 -46.738898745962516 1.9724999999999968 0 0 0      
255 3 -1.20038243626062 15.945274954860269 -48.00514116884848 1.9724999999999968 0 0 0      
256 3 -1.20038243626062 15.33560267717442 -46.129226468276684 0.0 0 0 0      
257 1 1.19898132427844 17.821189655432057 -47.39546889116262 0.0 0 0 0      
258 2 2.39923599320883 19.087432078318017 -44.90988191290499 1.9724999999999968 0 0 0      
259 3 -1.20038243626062 17.21151737774622 -45.51955419059084 1.9724999999999968 0 0 0      
260 3 -1.20038243626062 19.697104356003848 -46.785796613476805 1.9724999999999968 0 0 0      
261 3 -1.20038243626062 19.087432078318017 -44.90988191290499 0.0 0 0 0      
262 1 1.19898132427844 21.57301905657565 -46.17612433579096 0.0 0 0 0      
263 2 2.39923599320883 22.839261479461605 -43.69053735753336 1.9724999999999968 0 0 0      
264 3 -1.20038243626062 20.963346778889807 -44.300209635219176 1.9724999999999968 0 0 0      
265 3 -1.20038243626062 23.448933757147444 -45.566452058105114 1.9724999999999968 0 0 0      
266 3 -1.20038243626062 22.839261479461605 -43.69053735753336 0.0 0 0 0      
267 1 1.19898132427844 25.324848457719234 -44.956779780419296 0.0 0 0 0      
268 2 2.39923599320883 26.591090880605197 -42.47119280216168 1.9724999999999968 0 0 0      
269 3 -1.20038243626062 24.7151761800334 -43.08086507984751 1.9724999999999968 0 0 0      
270 3 -1.20038243626062 27.200763158291032 -44.34710750273348 1.9724999999999968 0 0 0      
271 3 -1.20038243626062 26.591090880605197 -42.47119280216168 0.0 0 0 0      
272 1 1.19898132427844 29.076677858862823 -43.73743522504763 0.0 0 0 0      
273 2 2.39923599320883 30.342920281748786 -41.251848246790004 1.9724999999999968 0 0 0      
274 3 -1.20038243626062 28.46700558117699 -41.861520524475836 1.9724999999999968 0 0 0      
275 3 -1.20038243626062 30.95259255943462 -43.1277629473618 1.9724999999999968 0 0 0      
276 3 -1.20038243626062 30.342920281748786 -41.251848246790004 0.0 0 0 0      
277 1 1.19898132427844 1.5945274954860196 -48.52101771150572 0.0 0 0 0      
278 2 2.39923599320883 2.860769918371986 -46.03543073324808 1.9724999999999968 0 0 0      
279 3 -1.20038243626062 0.984855217800188 -46.64510301093392 1.9724999999999968 0 0 0      
280 3 -1.20038243626062 3.4704421960578173 -47.911345433819875 1.9724999999999968 0 0 0      
281 3 -1.20038243626062 2.860769918371986 -46.03543073324808 0.0 0 0 0      
282 1 1.19898132427844 5.346356896629615 -47.30167315613404 0.0 0 0 0      
283 2 2.39923599320883 6.612599319515581 -44.816086177876414 1.9724999999999968 0 0 0      
284 3 -1.20038243626062 4.736684618943784 -45.42575845556223 1.9724999999999968 0 0 0      
285 3 -1.20038243626062 7.222271597201413 -46.6920008784482 1.9724999999999968 0 0 0      
286 3 -1.20038243626062 6.612599319515581 -44.816086177876414 0.0 0 0 0      
287 1 1.19898132427844 9.09818629777321 -46.08232860076238 0.0 0 0 0      
288 2 2.39923599320883 10.364428720659175 -43.59674162250475 1.9724999999999968 0 0 0      
289 3 -1.20038243626062 8.48851402008738 -44.20641390019058 1.9724999999999968 0 0 0      
290 3 -1.20038243626062 10.974100998345008 -45.47265632307656 1.9724999999999968 0 0 0      
291 3 -1.20038243626062 10.364428720659175 -43.59674162250475 0.0 0 0 0      
292 1 1.19898132427844 12.850015698916792 -44.86298404539072 0.0 0 0 0      
293 2 2.39923599320883 14.116258121802758 -42.377397067133074 1.9724999999999968 0 0 0      
294 3 -1.20038243626062 12.24034342123096 -42.98706934481892 1.9724999999999968 0 0 0      
295 3 -1.20038243626062 14.72593039948859 -44.25331176770487 1.9724999999999968 0 0 0      
296 3 -1.20038243626062 14.116258121802758 -42.377397067133074 0.0 0 0 0      
297 1 1.19898132427844 16.601845100060387 -43.64363949001904 0.0 0 0 0      
298 2 2.39923599320883 17.868087522946354 -41.1580525117614 1.9724999999999968 0 0 0      
299 3 -1.20038243626062 15.992172822374556 -41.76772478944724 1.9724999999999968 0 0 0      
300 3 -1.20038243626062 18.477759800632185 -43.033967212333195 1.9724999999999968 0 0 0      
301 3 -1.20038243626062 17.868087522946354 -41.1580525117614 0.0 0 0 0      
302 1 1.19898132427844 20.353674501203976 -42.42429493464738 0.0 0 0 0      
303 2 2.39923599320883 21.619916924089942 -39.93870795638976 1.9724999999999968 0 0 0      
304 3 -1.20038243626062 19.744002223518144 -40.54838023407558 1.9724999999999968 0 0 0      
305 3 -1.20038243626062 22.229589201775774 -41.81462265696156 1.9724999999999968 0 0 0      
306 3 -1.20038243626062 21.619916924089942 -39.93870795638976 0.0 0 0 0      
307 1 1.19898132427844 24.105503902347564 -41.204950379275715 0.0 0 0 0      
308 2 2.39923599320883 25.37174632523353 -38.71936340101807 1.9724999999999968 0 0 0      
309 3 -1.20038243626062 23.495831624661733 -39.32903567870392 1.9724999999999968 0 0 0      
310 3 -1.20038243626062 25.98141860291936 -40.595278101589884 1.9724999999999968 0 0 0      
311 3 -1.20038243626062 25.37174632523353 -38.71936340101807 0.0 0 0 0      
312 1 1.19898132427844 27.85733330349116 -39.98560582390404 0.0 0 0 0      
313 2 2.39923599320883 29.12357572637712 -37.500018845646395 1.9724999999999968 0 0 0      
314 3 -1.20038243626062 27.24766102580533 -38.109691123332254 1.9724999999999968 0 0 0      
315 3 -1.20038243626062 29.73324800406295 -39.37593354621819 1.9724999999999968 0 0 0      
316 3 -1.20038243626062 29.12357572637712 -37.500018845646395 0.0 0 0 0      
317 1 1.19898132427844 31.60916270463475 -38.766261268532375 0.0 0 0 0      
318 3 -1.20038243626062 30.99949042694892 -36.89034656796058 1.9724999999999968 0 0 0      
319 1 1.19898132427844 0.3751829401143567 -44.769188310362125 0.0 0 0 0      
320 2 2.39923599320883 1.641425363000323 -42.283601332104496 1.9724999999999968 0 0 0      
321 3 -1.20038243626062 2.2510976406861545 -44.15951603267628 1.9724999999999968 0 0 0      
322 3 -1.20038243626062 1.641425363000323 -42.283601332104496 0.0 0 0 0      
323 1 1.19898132427844 4.127012341257952 -43.549843754990434 0.0 0 0 0      
324 2 2.39923599320883 5.393254764143919 -41.06425677673283 1.9724999999999968 0 0 0      
325 3 -1.20038243626062 3.517340063572121 -41.67392905441868 1.9724999999999968 0 0 0      
326 3 -1.20038243626062 6.00292704182975 -42.94017147730462 1.9724999999999968 0 0 0      
327 3 -1.20038243626062 5.393254764143919 -41.06425677673283 0.0 0 0 0      
328 1 1.19898132427844 7.878841742401534 -42.3304991996188 0.0 0 0 0      
329 2 2.39923599320883 9.1450841652875 -39.844912221361156 1.9724999999999968 0 0 0      
330 3 -1.20038243626062 7.269169464715702 -40.454584499047 1.9724999999999968 0 0 0      
331 3 -1.20038243626062 9.754756442973331 -41.720826921932954 1.9724999999999968 0 0 0      
332 3 -1.20038243626062 9.1450841652875 -39.844912221361156 0.0 0 0 0      
333 1 1.19898132427844 11.630671143545127 -41.11115464424712 0.0 0 0 0      
334 2 2.39923599320883 12.896913566431095 -38.62556766598952 1.9724999999999968 0 0 0      
335 3 -1.20038243626062 11.020998865859298 -39.23523994367534 1.9724999999999968 0 0 0      
336 3 -1.20038243626062 13.506585844116929 -40.50148236656128 1.9724999999999968 0 0 0      
337 3 -1.20038243626062 12.896913566431095 -38.62556766598952 0.0 0 0 0      
338 1 1.19898132427844 15.38250054468871 -39.89181008887543 0.0 0 0 0      
339 2 2.39923599320883 16.648742967574677 -37.406223110617844 1.9724999999999968 0 0 0      
340 3 -1.20038243626062 14.77282826700288 -38.01589538830366 1.9724999999999968 0 0 0      
341 3 -1.20038243626062 17.258415245260508 -39.282137811189614 1.9724999999999968 0 0 0      
342 3 -1.20038243626062 16.648742967574677 -37.406223110617844 0.0 0 0 0      
343 1 1.19898132427844 19.134329945832302 -38.67246553350378 0.0 0 0 0      
344 2 2.39923599320883 20.400572368718272 -36.18687855524615 1.9724999999999968 0 0 0      