ITEM: TIMESTEP
0
ITEM: NUMBER OF ATOMS
53214
ITEM: BOX BOUNDS pp pp pp
-4.6884664281285077e-01 9.8541959415174077e+01
-1.4184843612320407e+02 1.4184843612320407e+02
3.8621521131751629e-02 2.3631378478868250e+01
ITEM: ATOMS id mass type xs ys zs
1 47.867 2 0.00607459 0.00834511 0.0833333
2 15.999 3 0.00797471 0.000860667 0.0833333
3 15.999 3 0.0262137 0.00847098 0.0833333
4 47.867 2 0.0452238 0.00980529 0.0833333
5 15.999 3 0.0477399 0.00192954 0.0833333
6 15.999 3 0.045874 0.00929614 1.50291e-16
7 15.999 3 0.0653588 0.00987807 0.0833333
8 47.867 2 0.0852141 0.010494 0.0833333
9 15.999 3 0.0862465 0.00295276 0.0833333
10 47.867 2 0.124956 0.0114195 0.0833333
11 15.999 3 0.105029 0.0105544 0.0833333
12 15.999 3 0.126549 0.00412943 0.0833333
13 15.999 3 0.124912 0.0111742 1.50291e-16
14 15.999 3 0.166375 0.00532779 0.0833333
15 15.999 3 0.206192 0.00653102 0.0833333
16 87.62 1 0.226143 0.00748062 1.50291e-16
17 15.999 3 0.227829 0.000194779 0.0833333
18 47.867 2 0.247768 0.000983297 0.0833333
19 15.999 3 0.245943 0.00771497 0.0833333
20 87.62 1 0.265857 0.0086318 6.17634e-18
21 15.999 3 0.267575 0.00136675 0.0833333
22 47.867 2 0.287486 0.00213485 0.0833333
23 15.999 3 0.285667 0.00888192 0.0833333
24 47.867 2 0.327199 0.00327408 0.0833333
25 15.999 3 0.307301 0.00252406 0.0833333
26 87.62 1 0.305569 0.00976951 3.08817e-17
27 15.999 3 0.3254 0.0100312 0.0833333
28 15.999 3 0.347031 0.00366705 0.0833333
29 87.62 1 0.345292 0.010896 9.00274e-16
30 15.999 3 0.365147 0.0111688 0.0833333
31 47.867 2 0.366928 0.00440402 0.0833333
32 15.999 3 0.386782 0.00480325 0.0833333
33 47.867 2 0.406679 0.005533 0.0833333
34 15.999 3 0.426554 0.0059391 0.0833333
35 47.867 2 0.446453 0.00666644 0.0833333
36 15.999 3 0.446451 0.00651139 7.50278e-16
37 15.999 3 0.466341 0.00707672 0.0833333
38 47.867 2 0.486236 0.0078027 0.0833333
39 15.999 3 0.487997 0.000669804 0.0833333
40 87.62 1 0.507873 0.00150263 0
41 47.867 2 0.526024 0.00893853 0.0833333
42 15.999 3 0.506135 0.00821348 0.0833333
43 15.999 3 0.527786 0.00180477 0.0833333
44 47.867 2 0.565807 0.0100719 0.0833333
45 15.999 3 0.545927 0.00934761 0.0833333
46 15.999 3 0.567573 0.00293491 0.0833333
47 15.999 3 0.585712 0.0104757 0.0833333
48 47.867 2 0.605579 0.0112014 0.0833333
49 15.999 3 0.607353 0.00405964 0.0833333
50 15.999 3 0.605603 0.0110439 9.59391e-16
51 15.999 3 0.647117 0.00518013 0.0833333
52 15.999 3 0.686867 0.00629846 0.0833333
53 47.867 2 0.72828 0.000659021 0.0833333
54 87.62 1 0.706659 0.00716018 1.50291e-16
55 15.999 3 0.726612 0.00741262 0.0833333
56 15.999 3 0.748205 0.00102829 0.0833333
57 87.62 1 0.746392 0.00828697 3.61463e-16
58 15.999 3 0.766352 0.00851522 0.0833333
59 47.867 2 0.768012 0.00177257 0.0833333
60 15.999 3 0.787943 0.0021182 0.0833333
61 47.867 2 0.807747 0.00286874 0.0833333
62 15.999 3 0.827692 0.00318706 0.0833333
63 15.999 3 0.806076 0.00959983 0.0833333
64 87.62 1 0.82581 0.0105057 2.99993e-17
65 47.867 2 0.847493 0.00395716 0.0833333
66 15.999 3 0.845748 0.0106712 0.0833333
67 47.867 2 0.887302 0.0050467 0.0833333
68 15.999 3 0.867452 0.00427395 0.0833333
69 47.867 2 0.927156 0.00630686 0.0833333
70 15.999 3 0.907338 0.00533197 0.0833333
71 87.62 1 0.94892 0.000159929 0
72 15.999 3 0.94706 0.00683388 0.0833333
73 47.867 2 0.966986 0.00786816 0.0833333
74 15.999 3 0.986228 0.00741078 0.0833333
75 15.999 3 0.00450586 0.0146976 0.0833333
76 87.62 1 0.0216192 0.0171544 7.1822e-16
77 15.999 3 0.0435562 0.0163508 0.0833333
78 87.62 1 0.0637221 0.0171526 2.08819e-17
79 15.999 3 0.0841693 0.017138 0.0833333
80 15.999 3 0.123322 0.0181159 0.0833333
81 15.999 3 0.14479 0.011735 0.0833333
82 47.867 2 0.164715 0.0125758 0.0833333
83 15.999 3 0.164672 0.0123478 1.44703e-16
84 87.62 1 0.143232 0.0191283 2.16172e-16
85 15.999 3 0.163004 0.0192807 0.0833333
86 15.999 3 0.184545 0.0129197 0.0833333
87 47.867 2 0.204453 0.0137455 0.0833333
88 15.999 3 0.204421 0.0135375 1.05439e-15
89 15.999 3 0.224287 0.0141144 0.0833333
90 15.999 3 0.202673 0.0204662 0.0833333
91 47.867 2 0.244179 0.0149109 0.0833333
92 15.999 3 0.264018 0.01529 0.0833333
93 15.999 3 0.242388 0.0216448 0.0833333
94 47.867 2 0.283904 0.0160619 0.0833333
95 15.999 3 0.283891 0.0158781 3.00288e-16
96 15.999 3 0.28212 0.0228071 0.0833333
97 47.867 2 0.323639 0.0171963 0.0833333
98 15.999 3 0.303752 0.0164452 0.0833333
99 15.999 3 0.323631 0.0170226 3.00288e-16
100 47.867 2 0.363389 0.0183222 0.0833333
101 15.999 3 0.343501 0.0175845 0.0833333
102 15.999 3 0.363386 0.0181559 3.28816e-16
103 15.999 3 0.383264 0.0187165 0.0833333
104 47.867 2 0.403155 0.0194472 0.0833333
105 15.999 3 0.404912 0.0123029 0.0833333
106 87.62 1 0.424801 0.0131456 2.44112e-16
107 15.999 3 0.423042 0.0198481 0.0833333
108 47.867 2 0.442936 0.0205761 0.0833333
109 15.999 3 0.444697 0.013439 0.0833333
110 87.62 1 0.464584 0.0142781 0
111 15.999 3 0.462836 0.0209843 0.0833333
112 47.867 2 0.482734 0.0217108 0.0833333
113 15.999 3 0.484493 0.0145765 0.0833333
114 15.999 3 0.482738 0.0215559 6.79985e-16
115 47.867 2 0.522528 0.022848 0.0833333
116 15.999 3 0.502637 0.0221207 0.0833333
117 15.999 3 0.524291 0.0157129 0.0833333
118 87.62 1 0.544162 0.0165501 3.00288e-16
119 15.999 3 0.564083 0.0168449 0.0833333
120 87.62 1 0.583939 0.0176835 3.00288e-16
121 15.999 3 0.625484 0.0116011 0.0833333
122 15.999 3 0.603858 0.0179717 0.0833333
123 47.867 2 0.645339 0.0123301 0.0833333
124 15.999 3 0.645368 0.0121667 9.47038e-17
125 15.999 3 0.665243 0.0127226 0.0833333
126 15.999 3 0.643627 0.019095 0.0833333
127 87.62 1 0.663463 0.0199482 3.00288e-16
128 47.867 2 0.685089 0.013459 0.0833333
129 15.999 3 0.68512 0.013288 6.00281e-16
130 15.999 3 0.683382 0.0202173 0.0833333
131 47.867 2 0.724832 0.0145861 0.0833333
132 15.999 3 0.704994 0.013843 0.0833333
133 87.62 1 0.703211 0.0210825 2.67641e-17
134 15.999 3 0.723133 0.0213379 0.0833333
135 47.867 2 0.764561 0.0157103 0.0833333
136 15.999 3 0.744736 0.0149581 0.0833333
137 15.999 3 0.764594 0.0155224 6.00281e-16
138 15.999 3 0.762868 0.0224566 0.0833333
139 15.999 3 0.784457 0.0160629 0.0833333
140 47.867 2 0.804259 0.0168259 0.0833333
141 15.999 3 0.804289 0.0166238 1.50291e-16
142 15.999 3 0.824126 0.0171532 0.0833333
143 47.867 2 0.84389 0.017926 0.0833333
144 15.999 3 0.843925 0.0177141 1.05057e-15
145 87.62 1 0.865485 0.0115965 3.47051e-17
146 15.999 3 0.863726 0.0182206 0.0833333
147 47.867 2 0.883423 0.0190423 0.0833333
148 15.999 3 0.885499 0.0117464 0.0833333
149 15.999 3 0.883449 0.018809 0
150 47.867 2 0.922931 0.0201682 0.0833333
151 15.999 3 0.903175 0.0193743 0.0833333
152 15.999 3 0.924839 0.0129425 0.0833333
153 87.62 1 0.945152 0.0140632 5.84693e-16
154 15.999 3 0.942696 0.0204884 0.0833333
155 47.867 2 0.962632 0.0216088 0.0833333
156 15.999 3 0.965519 0.0144357 0.0833333
157 15.999 3 0.981609 0.0227703 0.0833333
158 15.999 3 0.0234686 0.0235571 0.0833333
159 47.867 2 0.0427496 0.023559 0.0833333
160 15.999 3 0.0628384 0.0235914 0.0833333
161 15.999 3 0.0424864 0.0303282 0.0833333
162 47.867 2 0.0824346 0.0244242 0.0833333
163 15.999 3 0.0808217 0.0311491 0.0833333
164 15.999 3 0.102195 0.0247207 0.0833333
165 47.867 2 0.121856 0.0255024 0.0833333
166 15.999 3 0.121897 0.0252365 5.00283e-16
167 15.999 3 0.120267 0.0322122 0.0833333
168 47.867 2 0.161329 0.0265819 0.0833333
169 15.999 3 0.141573 0.0257488 0.0833333
170 15.999 3 0.15961 0.0333036 0.0833333
171 15.999 3 0.181123 0.0269041 0.0833333
172 15.999 3 0.199196 0.0344487 0.0833333
173 47.867 2 0.200934 0.0277203 0.0833333
174 15.999 3 0.220773 0.028069 0.0833333
175 47.867 2 0.240617 0.0288605 0.0833333
176 15.999 3 0.240635 0.0286604 0
177 15.999 3 0.260484 0.0292264 0.0833333
178 47.867 2 0.280348 0.029994 0.0833333
179 15.999 3 0.280362 0.0298087 9.97037e-17
180 15.999 3 0.300231 0.0303707 0.0833333
181 47.867 2 0.320103 0.0311196 0.0833333
182 15.999 3 0.321871 0.0239514 0.0833333
183 47.867 2 0.359872 0.0322403 0.0833333
184 15.999 3 0.339993 0.0315038 0.0833333
185 15.999 3 0.361632 0.0250848 0.0833333
186 15.999 3 0.359883 0.032072 1.8529e-16
187 47.867 2 0.399651 0.0333604 0.0833333
188 15.999 3 0.379768 0.0326316 0.0833333
189 15.999 3 0.401409 0.0262146 0.0833333
190 15.999 3 0.419554 0.0337594 0.0833333
191 15.999 3 0.441196 0.0273468 0.0833333
192 15.999 3 0.439453 0.0343273 4.50578e-16
193 15.999 3 0.481 0.0284836 0.0833333
194 87.62 1 0.500879 0.0293226 0
195 15.999 3 0.520801 0.0296208 0.0833333
196 47.867 2 0.562319 0.0239833 0.0833333
197 15.999 3 0.542433 0.0232563 0.0833333
198 15.999 3 0.562329 0.0238274 0
199 87.62 1 0.540676 0.0304602 3.82345e-16
200 15.999 3 0.560591 0.0307554 0.0833333
201 15.999 3 0.582218 0.024387 0.0833333
202 47.867 2 0.602094 0.0251148 0.0833333
203 15.999 3 0.62199 0.0255128 0.0833333
204 15.999 3 0.600369 0.0318838 0.0833333
205 47.867 2 0.64186 0.0262451 0.0833333
206 15.999 3 0.661749 0.0266383 0.0833333
207 15.999 3 0.640129 0.0330086 0.0833333
208 47.867 2 0.681612 0.0273768 0.0833333
209 15.999 3 0.679879 0.0341343 0.0833333
210 47.867 2 0.721354 0.0285124 0.0833333
211 15.999 3 0.701498 0.0277633 0.0833333
212 47.867 2 0.761071 0.0296562 0.0833333
213 15.999 3 0.741234 0.0288917 0.0833333
214 15.999 3 0.761085 0.0294648 1.50291e-16
215 87.62 1 0.782656 0.0233567 0
216 15.999 3 0.780934 0.0300241 0.0833333
217 47.867 2 0.800738 0.0308038 0.0833333
218 15.999 3 0.802561 0.0235656 0.0833333
219 15.999 3 0.820564 0.0311547 0.0833333
220 47.867 2 0.840297 0.0319563 0.0833333
221 15.999 3 0.842172 0.0246619 0.0833333
222 15.999 3 0.840294 0.0317314 0
223 15.999 3 0.86004 0.0322842 0.0833333
224 47.867 2 0.879682 0.0330875 0.0833333
225 15.999 3 0.881563 0.0257652 0.0833333
226 15.999 3 0.879694 0.0328557 6.00281e-16
227 15.999 3 0.89936 0.0333901 0.0833333
228 87.62 1 0.90117 0.0267144 3.83815e-16
229 15.999 3 0.92098 0.0269026 0.0833333
230 47.867 2 0.91888 0.0342166 0.0833333
231 15.999 3 0.959326 0.0283005 0.0833333
232 15.999 3 0.0199759 0.0363619 0.0833333
233 87.62 1 0.018794 0.0431536 8.40276e-16
234 15.999 3 0.0377268 0.0439289 0.0833333
235 47.867 2 0.039884 0.0372002 0.0833333
236 15.999 3 0.0596513 0.0377955 0.0833333
237 47.867 2 0.0792174 0.0384856 0.0833333
238 15.999 3 0.0792765 0.0382336 6.00281e-16
239 15.999 3 0.0988621 0.0387411 0.0833333
240 15.999 3 0.0774074 0.0452009 0.0833333
241 47.867 2 0.118499 0.0395579 0.0833333
242 47.867 2 0.1579 0.0406421 0.0833333
243 15.999 3 0.138218 0.0398425 0.0833333
244 47.867 2 0.197434 0.0417247 0.0833333
245 15.999 3 0.177681 0.0409302 0.0833333
246 15.999 3 0.197496 0.041501 4.50578e-16
247 87.62 1 0.218991 0.0353938 1.50291e-16
248 15.999 3 0.21729 0.0420542 0.0833333
249 47.867 2 0.237108 0.0428235 0.0833333
250 15.999 3 0.238865 0.0355976 0.0833333
251 87.62 1 0.258697 0.0365097 7.3469e-16
252 15.999 3 0.257001 0.0431741 0.0833333
253 47.867 2 0.276844 0.0439304 0.0833333
254 15.999 3 0.27861 0.0367403 0.0833333
255 15.999 3 0.276882 0.0437432 1.50291e-16
256 87.62 1 0.298448 0.0376256 7.50572e-16
257 15.999 3 0.296756 0.0442995 0.0833333
258 47.867 2 0.316614 0.0450421 0.0833333
259 15.999 3 0.318373 0.0378735 0.0833333
260 87.62 1 0.338219 0.0387384 4.50578e-16
261 15.999 3 0.33653 0.0454211 0.0833333
262 15.999 3 0.35815 0.0390012 0.0833333
263 15.999 3 0.397933 0.0401272 0.0833333
264 47.867 2 0.439443 0.0344854 0.0833333
265 15.999 3 0.45935 0.0348908 0.0833333
266 15.999 3 0.43773 0.0412556 0.0833333
267 47.867 2 0.479244 0.0356183 0.0833333
268 15.999 3 0.499151 0.0360284 0.0833333
269 15.999 3 0.477526 0.0423906 0.0833333
270 47.867 2 0.519045 0.0367554 0.0833333
271 15.999 3 0.517322 0.0435292 0.0833333
272 47.867 2 0.558837 0.0378934 0.0833333
273 15.999 3 0.538947 0.0371648 0.0833333
274 15.999 3 0.558842 0.0377379 1.50291e-16
275 15.999 3 0.557112 0.0446659 0.0833333
276 47.867 2 0.598615 0.0390277 0.0833333
277 15.999 3 0.578729 0.0382981 0.0833333
278 15.999 3 0.598616 0.0388687 1.50291e-16
279 15.999 3 0.59688 0.0457976 0.0833333
280 15.999 3 0.618494 0.0394263 0.0833333
281 47.867 2 0.638373 0.0401589 0.0833333
282 15.999 3 0.658242 0.0405523 0.0833333
283 47.867 2 0.678116 0.0412944 0.0833333
284 15.999 3 0.678113 0.0411244 0
285 15.999 3 0.697973 0.0416841 0.0833333
286 47.867 2 0.717838 0.0424398 0.0833333
287 15.999 3 0.719618 0.0352636 0.0833333
288 15.999 3 0.717833 0.0422601 3.43816e-16
289 87.62 1 0.739459 0.0361536 3.00288e-16
290 47.867 2 0.757533 0.0435998 0.0833333
291 15.999 3 0.737683 0.0428265 0.0833333
292 15.999 3 0.759332 0.0364011 0.0833333
293 87.62 1 0.77915 0.0373173 1.50291e-16
294 47.867 2 0.797193 0.0447791 0.0833333
295 15.999 3 0.777367 0.0439824 0.0833333
296 15.999 3 0.797188 0.0445678 9.25862e-16
297 15.999 3 0.799011 0.0375453 0.0833333
298 87.62 1 0.818777 0.0384929 4.00285e-16
299 15.999 3 0.817009 0.0451564 0.0833333
300 15.999 3 0.838601 0.0386975 0.0833333
301 47.867 2 0.836801 0.0459732 0.0833333
302 15.999 3 0.878033 0.03983 0.0833333
303 15.999 3 0.917219 0.0409671 0.0833333
304 47.867 2 0.958149 0.0352075 0.0833333
305 15.999 3 0.938395 0.0346216 0.0833333
306 15.999 3 0.956556 0.0419581 0.0833333
307 15.999 3 0.978107 0.0356769 0.0833333
308 87.62 1 0.975656 0.0422508 1.50291e-16
309 15.999 3 0.0140398 0.0494063 0.0833333
310 15.999 3 0.0324018 0.0574006 0.0833333
311 47.867 2 0.0354643 0.0508907 0.0833333
312 15.999 3 0.034776 0.0506865 0
313 15.999 3 0.055149 0.051497 0.0833333
314 87.62 1 0.097005 0.0461675 0
315 47.867 2 0.0752491 0.0524027 0.0833333
316 15.999 3 0.0950713 0.0527647 0.0833333
317 15.999 3 0.116701 0.0462633 0.0833333
318 47.867 2 0.114785 0.0536014 0.0833333
319 15.999 3 0.114857 0.0533284 1.13527e-16
320 15.999 3 0.134606 0.0538749 0.0833333
321 47.867 2 0.154304 0.0546764 0.0833333
322 15.999 3 0.15617 0.0473609 0.0833333
323 15.999 3 0.154411 0.0544253 4.50578e-16
324 47.867 2 0.193942 0.0557211 0.0833333
325 15.999 3 0.174173 0.0549683 0.0833333
326 15.999 3 0.195708 0.0484548 0.0833333
327 15.999 3 0.194027 0.0554924 8.85275e-17
328 87.62 1 0.215473 0.0493765 0
329 15.999 3 0.213853 0.0560292 0.0833333
330 47.867 2 0.233654 0.0567808 0.0833333
331 15.999 3 0.233728 0.0565748 1.29703e-16
332 15.999 3 0.235416 0.0495614 0.0833333
333 15.999 3 0.253588 0.0571223 0.0833333
334 15.999 3 0.275163 0.0506764 0.0833333
335 15.999 3 0.314939 0.0517953 0.0833333
336 47.867 2 0.356394 0.0461547 0.0833333
337 15.999 3 0.356421 0.0459869 1.50291e-16
338 15.999 3 0.354718 0.0529151 0.0833333
339 47.867 2 0.396186 0.0472702 0.0833333
340 15.999 3 0.376313 0.0465444 0.0833333
341 15.999 3 0.396208 0.047109 6.92632e-16
342 15.999 3 0.394507 0.0540368 0.0833333
343 15.999 3 0.416103 0.047668 0.0833333
344 87.62 1 0.414349 0.0548749 1.50291e-16
345 47.867 2 0.435983 0.048393 0.0833333
346 15.999 3 0.455895 0.0487992 0.0833333
347 15.999 3 0.434294 0.0551651 0.0833333
348 47.867 2 0.475778 0.0495248 0.0833333
349 15.999 3 0.495687 0.0499352 0.0833333
350 15.999 3 0.474078 0.0562995 0.0833333
351 47.867 2 0.515576 0.0506624 0.0833333
352 15.999 3 0.515581 0.0505097 8.89392e-16
353 15.999 3 0.513861 0.0574377 0.0833333
354 47.867 2 0.555366 0.0518024 0.0833333
355 15.999 3 0.535474 0.0510739 0.0833333
356 47.867 2 0.595137 0.0529405 0.0833333
357 15.999 3 0.57525 0.0522113 0.0833333
358 15.999 3 0.615002 0.0533433 0.0833333
359 47.867 2 0.634884 0.054077 0.0833333
360 15.999 3 0.63663 0.046925 0.0833333
361 87.62 1 0.656506 0.0477783 0
362 15.999 3 0.654725 0.0544734 0.0833333
363 47.867 2 0.674598 0.0552177 0.0833333
364 15.999 3 0.676356 0.048054 0.0833333
365 15.999 3 0.674577 0.0550493 0
366 15.999 3 0.694421 0.055611 0.0833333
367 47.867 2 0.714286 0.0563705 0.0833333
368 15.999 3 0.71606 0.0491921 0.0833333
369 15.999 3 0.71426 0.0561924 6.00281e-16
370 15.999 3 0.734093 0.056761 0.0833333
371 15.999 3 0.755742 0.0503433 0.0833333
372 15.999 3 0.795413 0.051511 0.0833333
373 15.999 3 0.856586 0.0463406 0.0833333
374 15.999 3 0.835074 0.0526949 0.0833333
375 87.62 1 0.854943 0.0536906 0
376 47.867 2 0.876322 0.0471578 0.0833333
377 15.999 3 0.896057 0.0474614 0.0833333
378 15.999 3 0.874764 0.0538736 0.0833333
379 87.62 1 0.894618 0.0548658 0
380 47.867 2 0.915781 0.0482203 0.0833333
381 15.999 3 0.915933 0.0479784 7.76159e-16
382 15.999 3 0.914353 0.0548993 0.0833333
383 47.867 2 0.955571 0.0489487 0.0833333
384 15.999 3 0.935782 0.0484647 0.0833333
385 15.999 3 0.955104 0.0555602 0.0833333
386 47.867 2 0.995354 0.0502319 0.0833333
387 15.999 3 0.976939 0.0486773 0.0833333
388 15.999 3 0.995608 0.0485033 3.00288e-16
389 87.62 1 0.973258 0.0569954 4.50578e-16
390 15.999 3 0.99395 0.0564539 0.0833333
391 87.62 1 0.0141164 0.0580035 1.50291e-16
392 47.867 2 0.0315805 0.0653184 0.0833333
393 15.999 3 0.0117481 0.0643289 0.0833333
394 15.999 3 0.0511902 0.0652306 0.0833333
395 47.867 2 0.0710646 0.0663406 0.0833333
396 15.999 3 0.0732446 0.059021 0.0833333
397 87.62 1 0.0929153 0.0601668 1.50291e-16
398 15.999 3 0.0910686 0.0666705 0.0833333
399 47.867 2 0.110805 0.0675786 0.0833333
400 15.999 3 0.112964 0.0602741 0.0833333
401 15.999 3 0.130856 0.0678864 0.0833333
402 47.867 2 0.150662 0.068638 0.0833333
403 15.999 3 0.152542 0.0613791 0.0833333
404 15.999 3 0.150795 0.0683884 4.00874e-16
405 15.999 3 0.170692 0.0689204 0.0833333
406 15.999 3 0.192294 0.0624401 0.0833333
407 87.62 1 0.212011 0.0633389 5.46164e-16
408 15.999 3 0.232032 0.063512 0.0833333
409 87.62 1 0.251784 0.0643927 0
410 47.867 2 0.273415 0.0578622 0.0833333
411 15.999 3 0.293355 0.0582244 0.0833333
412 15.999 3 0.271799 0.0646064 0.0833333
413 47.867 2 0.313192 0.0589596 0.0833333
414 15.999 3 0.333129 0.0593378 0.0833333
415 15.999 3 0.311572 0.0657142 0.0833333
416 47.867 2 0.352975 0.0600645 0.0833333
417 15.999 3 0.351341 0.0668277 0.0833333
418 47.867 2 0.392763 0.0611774 0.0833333
419 15.999 3 0.372908 0.0604529 0.0833333
420 15.999 3 0.391116 0.067947 0.0833333
421 47.867 2 0.432552 0.0623007 0.0833333
422 15.999 3 0.41269 0.0615772 0.0833333
423 87.62 1 0.41093 0.0687801 0
424 15.999 3 0.452469 0.0627084 0.0833333
425 47.867 2 0.472341 0.0634321 0.0833333
426 15.999 3 0.472357 0.0632808 1.84408e-16
427 15.999 3 0.492245 0.063844 0.0833333
428 47.867 2 0.512124 0.0645689 0.0833333
429 15.999 3 0.532016 0.0649852 0.0833333
430 47.867 2 0.551902 0.0657104 0.0833333
431 15.999 3 0.55364 0.0585772 0.0833333
432 47.867 2 0.591658 0.0668553 0.0833333
433 15.999 3 0.571774 0.0661241 0.0833333
434 15.999 3 0.593399 0.0597142 0.0833333
435 47.867 2 0.631382 0.0680015 0.0833333
436 15.999 3 0.611503 0.0672659 0.0833333
437 15.999 3 0.633125 0.060848 0.0833333
438 15.999 3 0.651195 0.0684051 0.0833333
439 15.999 3 0.672815 0.0619833 0.0833333
440 87.62 1 0.692698 0.0628532 3.00288e-16
441 15.999 3 0.712475 0.0631269 0.0833333
442 87.62 1 0.732368 0.06402 3.00288e-16
443 47.867 2 0.753958 0.0575381 0.0833333
444 15.999 3 0.752124 0.0642806 0.0833333
445 47.867 2 0.793635 0.0587232 0.0833333
446 15.999 3 0.77376 0.0579254 0.0833333
447 15.999 3 0.793607 0.0585161 1.50291e-16
448 87.62 1 0.77204 0.0652011 0
449 15.999 3 0.791791 0.0654453 0.0833333
450 15.999 3 0.813446 0.059108 0.0833333
451 15.999 3 0.833326 0.0596963 6.49986e-17
452 15.999 3 0.831531 0.0666206 0.0833333
453 47.867 2 0.833355 0.0599227 0.0833333
454 15.999 3 0.853201 0.0602986 0.0833333
455 87.62 1 0.851591 0.0676073 0
456 47.867 2 0.873167 0.0611251 0.0833333
457 15.999 3 0.873142 0.060874 6.00281e-16
458 15.999 3 0.893084 0.0614749 0.0833333
459 15.999 3 0.871412 0.0677972 0.0833333
460 87.62 1 0.891659 0.0688165 3.09993e-16
461 47.867 2 0.913093 0.0622235 0.0833333
462 15.999 3 0.933039 0.062254 0.0833333
463 15.999 3 0.911798 0.068911 0.0833333
464 47.867 2 0.952562 0.0633114 0.0833333
465 47.867 2 0.992056 0.0643528 0.0833333
466 15.999 3 0.972417 0.0633142 0.0833333
467 47.867 2 0.0278489 0.0795616 0.0833333
468 15.999 3 0.00846363 0.0783533 0.0833333
469 15.999 3 0.0300482 0.0717866 0.0833333
470 15.999 3 0.0282096 0.079032 4.50578e-16
471 15.999 3 0.0478152 0.0796379 0.0833333
472 15.999 3 0.0691259 0.0729476 0.0833333
473 87.62 1 0.0886399 0.074188 7.52925e-17
474 15.999 3 0.108968 0.074236 0.0833333
475 15.999 3 0.149085 0.0753185 0.0833333
476 47.867 2 0.190486 0.0696644 0.0833333
477 15.999 3 0.188929 0.0763695 0.0833333
478 15.999 3 0.210481 0.0699769 0.0833333
479 47.867 2 0.230271 0.0707105 0.0833333
480 15.999 3 0.230373 0.0705095 1.50291e-16
481 87.62 1 0.208604 0.0772569 0
482 15.999 3 0.228723 0.0774392 0.0833333
483 15.999 3 0.250252 0.071049 0.0833333
484 15.999 3 0.268481 0.0785264 0.0833333
485 47.867 2 0.270047 0.0717823 0.0833333
486 15.999 3 0.290018 0.0721456 0.0833333
487 47.867 2 0.309826 0.0728734 0.0833333
488 15.999 3 0.329784 0.0732508 0.0833333
489 15.999 3 0.30825 0.07963 0.0833333
490 47.867 2 0.349602 0.0739749 0.0833333
491 47.867 2 0.389375 0.0750859 0.0833333
492 15.999 3 0.369545 0.0743663 0.0833333
493 15.999 3 0.389423 0.0749307 5.05871e-17
494 15.999 3 0.430887 0.0690759 0.0833333
495 47.867 2 0.429148 0.076208 0.0833333
496 15.999 3 0.409306 0.0754882 0.0833333
497 87.62 1 0.450722 0.0699053 1.50291e-16
498 15.999 3 0.449067 0.0766205 0.0833333
499 47.867 2 0.468923 0.0773395 0.0833333
500 15.999 3 0.470659 0.070211 0.0833333
501 87.62 1 0.490512 0.0710387 1.50291e-16
502 15.999 3 0.488826 0.077758 0.0833333
503 47.867 2 0.508692 0.078479 0.0833333
504 15.999 3 0.510423 0.0713497 0.0833333
505 15.999 3 0.528571 0.0788982 0.0833333
506 47.867 2 0.548442 0.0796247 0.0833333
507 15.999 3 0.550178 0.0724917 0.0833333
508 15.999 3 0.548437 0.0794785 1.17644e-16
509 15.999 3 0.568296 0.0800455 0.0833333
510 15.999 3 0.589907 0.0736352 0.0833333
511 15.999 3 0.629606 0.074779 0.0833333
512 47.867 2 0.671065 0.0691504 0.0833333
513 15.999 3 0.671026 0.0689852 0
514 15.999 3 0.690851 0.0695493 0.0833333
515 15.999 3 0.66926 0.0759231 0.0833333
516 47.867 2 0.710724 0.0703061 0.0833333
517 15.999 3 0.730491 0.0706981 0.0833333
518 15.999 3 0.708893 0.0770684 0.0833333
519 47.867 2 0.75038 0.0714694 0.0833333
520 15.999 3 0.748521 0.0782161 0.0833333
521 47.867 2 0.790073 0.0726388 0.0833333
522 15.999 3 0.770144 0.0718537 0.0833333
523 15.999 3 0.788185 0.0793634 0.0833333
524 47.867 2 0.829847 0.0738127 0.0833333
525 15.999 3 0.809849 0.0730096 0.0833333
526 87.62 1 0.808232 0.0802912 0
527 15.999 3 0.849676 0.0741743 0.0833333
528 47.867 2 0.869782 0.0749925 0.0833333
529 15.999 3 0.889711 0.0753307 0.0833333
530 47.867 2 0.909757 0.0763075 0.0833333
531 15.999 3 0.929566 0.0767433 0.0833333
532 87.62 1 0.931424 0.0701274 0
533 47.867 2 0.949524 0.0777452 0.0833333
534 15.999 3 0.950841 0.0698345 0.0833333
535 15.999 3 0.949106 0.0772539 3.00288e-16
536 47.867 2 0.988822 0.0784787 0.0833333
537 15.999 3 0.968856 0.0775087 0.0833333
538 15.999 3 0.99029 0.07078 0.0833333
539 15.999 3 0.0260414 0.0859935 0.0833333
540 15.999 3 0.0654899 0.0872727 0.0833333
541 47.867 2 0.0671261 0.0806656 0.0833333
542 15.999 3 0.0872485 0.0807664 0.0833333
543 47.867 2 0.107106 0.0814995 0.0833333
544 15.999 3 0.127362 0.0817502 0.0833333
545 15.999 3 0.105773 0.0881575 0.0833333
546 47.867 2 0.147191 0.0825109 0.0833333
547 15.999 3 0.145786 0.0891906 0.0833333
548 15.999 3 0.167343 0.0828172 0.0833333
549 47.867 2 0.187106 0.083561 0.0833333
550 15.999 3 0.185653 0.09027 0.0833333
551 47.867 2 0.226925 0.0846177 0.0833333
552 15.999 3 0.207176 0.083883 0.0833333
553 87.62 1 0.205238 0.0911512 0
554 15.999 3 0.225422 0.0913496 0.0833333
555 15.999 3 0.246951 0.0849655 0.0833333
556 47.867 2 0.266711 0.0856913 0.0833333
557 15.999 3 0.286712 0.0860576 0.0833333
558 47.867 2 0.306485 0.0867814 0.0833333
559 15.999 3 0.326466 0.0871665 0.0833333
560 15.999 3 0.348003 0.0807424 0.0833333
561 47.867 2 0.346252 0.0878847 0.0833333
562 15.999 3 0.366209 0.0882815 0.0833333
563 87.62 1 0.367763 0.081573 8.9998e-17
564 47.867 2 0.386011 0.0889957 0.0833333
565 15.999 3 0.387754 0.0818616 0.0833333
566 15.999 3 0.386075 0.0888462 1.50291e-16
567 87.62 1 0.407539 0.0826854 1.50291e-16
568 47.867 2 0.425769 0.090116 0.0833333
569 15.999 3 0.405948 0.0894038 0.0833333
570 15.999 3 0.427504 0.0829889 0.0833333
571 15.999 3 0.425814 0.0899717 0
572 47.867 2 0.465523 0.0912495 0.0833333
573 15.999 3 0.445687 0.0905328 0.0833333
574 15.999 3 0.46555 0.0911074 4.50578e-16
575 15.999 3 0.467257 0.0841252 0.0833333
576 15.999 3 0.48542 0.0916743 0.0833333
577 15.999 3 0.507 0.0852668 0.0833333
578 15.999 3 0.546717 0.0864133 0.0833333
579 47.867 2 0.588172 0.0807747 0.0833333
580 15.999 3 0.588148 0.0806274 4.08226e-16
581 15.999 3 0.586415 0.0875636 0.0833333
582 47.867 2 0.627864 0.0819289 0.0833333
583 15.999 3 0.607993 0.0811927 0.0833333
584 15.999 3 0.626077 0.088715 0.0833333
585 15.999 3 0.647653 0.0823442 0.0833333
586 15.999 3 0.665714 0.0898656 0.0833333
587 47.867 2 0.667529 0.083086 0.0833333
588 15.999 3 0.667472 0.0829262 2.06466e-16
589 15.999 3 0.687285 0.0834922 0.0833333
590 47.867 2 0.707176 0.0842417 0.0833333
591 15.999 3 0.7071 0.0840738 1.50291e-16
592 15.999 3 0.726909 0.084638 0.0833333
593 15.999 3 0.705329 0.091012 0.0833333
594 47.867 2 0.746825 0.0853973 0.0833333
595 15.999 3 0.766545 0.0857789 0.0833333
596 47.867 2 0.786502 0.0865536 0.0833333
597 15.999 3 0.786385 0.0863638 4.50578e-16
598 47.867 2 0.82622 0.0877094 0.0833333
599 15.999 3 0.806213 0.0869187 0.0833333
600 15.999 3 0.827907 0.0805082 0.0833333
601 15.999 3 0.826084 0.0875058 4.50578e-16
602 87.62 1 0.84805 0.0814706 1.50291e-16
603 15.999 3 0.845933 0.088049 0.0833333
604 47.867 2 0.865958 0.0889027 0.0833333
605 15.999 3 0.867799 0.0816609 0.0833333
606 87.62 1 0.887894 0.0827288 0
607 15.999 3 0.885654 0.0892564 0.0833333
608 47.867 2 0.905805 0.0901647 0.0833333
609 15.999 3 0.907587 0.0829271 0.0833333
610 15.999 3 0.925608 0.0905565 0.0833333
611 47.867 2 0.946056 0.0916763 0.0833333
612 15.999 3 0.94812 0.0843407 0.0833333
613 15.999 3 0.987153 0.0848911 0.0833333
614 47.867 2 0.0232663 0.0945935 0.0833333
615 15.999 3 0.00477431 0.0931016 0.0833333
616 15.999 3 0.0246962 0.0937288 0
617 15.999 3 0.0231947 0.101015 0.0833333
618 15.999 3 0.0441613 0.0941403 0.0833333
619 47.867 2 0.0638809 0.0945851 0.0833333
620 15.999 3 0.0642674 0.0942851 1.19115e-16
621 87.62 1 0.0424329 0.101275 1.50291e-16
622 15.999 3 0.0631773 0.101241 0.0833333
623 15.999 3 0.084329 0.0946825 0.0833333
624 15.999 3 0.102976 0.102063 0.0833333
625 47.867 2 0.104062 0.0953925 0.0833333
626 15.999 3 0.124287 0.0956287 0.0833333
627 47.867 2 0.143959 0.0963934 0.0833333
628 15.999 3 0.164116 0.0967001 0.0833333
629 15.999 3 0.142641 0.103096 0.0833333
630 47.867 2 0.183796 0.0974528 0.0833333
631 47.867 2 0.223604 0.0985197 0.0833333
632 15.999 3 0.203904 0.0977898 0.0833333
633 15.999 3 0.223783 0.0983343 1.3235e-16
634 15.999 3 0.265193 0.0924407 0.0833333
635 47.867 2 0.263388 0.0995946 0.0833333
636 15.999 3 0.243668 0.0988749 0.0833333
637 15.999 3 0.263539 0.0994243 6.2381e-16
638 15.999 3 0.283419 0.0999716 0.0833333
639 47.867 2 0.30316 0.100686 0.0833333
640 15.999 3 0.304937 0.0935441 0.0833333
641 15.999 3 0.303284 0.100528 2.27348e-16
642 15.999 3 0.323158 0.10108 0.0833333
643 47.867 2 0.342921 0.101793 0.0833333
644 15.999 3 0.344687 0.0946588 0.0833333
645 15.999 3 0.362891 0.102197 0.0833333
646 47.867 2 0.382671 0.102905 0.0833333
647 15.999 3 0.384414 0.0957781 0.0833333
648 15.999 3 0.402613 0.103318 0.0833333
649 15.999 3 0.424148 0.096904 0.0833333
650 87.62 1 0.443933 0.0977135 0
651 15.999 3 0.463869 0.0980409 0.0833333
652 47.867 2 0.505266 0.0923926 0.0833333
653 15.999 3 0.525134 0.092821 0.0833333
654 15.999 3 0.503582 0.0991899 0.0833333
655 47.867 2 0.544987 0.0935435 0.0833333
656 15.999 3 0.564823 0.0939744 0.0833333
657 15.999 3 0.543269 0.100344 0.0833333
658 47.867 2 0.584683 0.0946995 0.0833333
659 15.999 3 0.582929 0.101499 0.0833333
660 47.867 2 0.624356 0.0958579 0.0833333
661 15.999 3 0.604486 0.0951277 0.0833333
662 15.999 3 0.624305 0.0957126 0
663 15.999 3 0.622568 0.102654 0.0833333
664 47.867 2 0.664009 0.0970174 0.0833333
665 15.999 3 0.644123 0.0962823 0.0833333
666 15.999 3 0.663932 0.0968658 2.70876e-16
667 15.999 3 0.683741 0.0974326 0.0833333
668 47.867 2 0.703642 0.0981747 0.0833333
669 15.999 3 0.723344 0.098578 0.0833333
670 47.867 2 0.743275 0.0993292 0.0833333
671 15.999 3 0.744949 0.0921543 0.0833333
672 15.999 3 0.743145 0.0991623 1.50291e-16
673 15.999 3 0.762943 0.0997213 0.0833333
674 87.62 1 0.764975 0.0930373 0
675 47.867 2 0.782897 0.100487 0.0833333
676 15.999 3 0.78457 0.0932929 0.0833333
677 47.867 2 0.822494 0.10166 0.0833333
678 15.999 3 0.802531 0.100861 0.0833333
679 15.999 3 0.824224 0.0944281 0.0833333
680 15.999 3 0.822298 0.101458 0
681 87.62 1 0.844297 0.0953856 1.15292e-16
682 47.867 2 0.862026 0.102854 0.0833333
683 15.999 3 0.842067 0.10202 0.0833333
684 15.999 3 0.863792 0.0955848 0.0833333
685 15.999 3 0.881539 0.10319 0.0833333
686 15.999 3 0.903415 0.0967903 0.0833333
687 87.62 1 0.923642 0.0979141 1.50291e-16
688 15.999 3 0.965658 0.0924201 0.0833333
689 15.999 3 0.943109 0.0982522 0.0833333
690 47.867 2 0.986231 0.0941565 0.0833333
691 15.999 3 0.983077 0.100458 0.0833333
692 47.867 2 0.0229595 0.107752 0.0833333
693 15.999 3 0.0195022 0.114122 0.0833333
694 47.867 2 0.0618594 0.108467 0.0833333
695 15.999 3 0.0422932 0.108 0.0833333
696 15.999 3 0.081825 0.108595 0.0833333
697 47.867 2 0.101227 0.109344 0.0833333
698 15.999 3 0.101563 0.109105 3.00288e-16
699 15.999 3 0.121298 0.109589 0.0833333
700 47.867 2 0.140813 0.110332 0.0833333
701 15.999 3 0.160932 0.110631 0.0833333
702 15.999 3 0.182384 0.104176 0.0833333
703 47.867 2 0.180529 0.11136 0.0833333
704 15.999 3 0.180789 0.111171 1.50291e-16
705 15.999 3 0.200657 0.111701 0.0833333
706 47.867 2 0.220307 0.112418 0.0833333
707 15.999 3 0.222157 0.105261 0.0833333
708 47.867 2 0.260088 0.113495 0.0833333
709 15.999 3 0.240406 0.112787 0.0833333
710 15.999 3 0.261908 0.106353 0.0833333
711 47.867 2 0.299862 0.114587 0.0833333
712 15.999 3 0.280149 0.113881 0.0833333
713 15.999 3 0.301651 0.107458 0.0833333
714 15.999 3 0.341381 0.108573 0.0833333
715 15.999 3 0.381108 0.109695 0.0833333