LAMMPS data file via write_data, version 19 Nov 2024, timestep = 0, units =.1 metal
              
13872 atoms             
3 atom types            
              
0 237.520453066678 xlo xhi           
-47.5040906133356 47.5040906133356 ylo yhi           
0 7.89 zlo zhi           
              
Masses              
              
1 87.62             
2 47.867             
3 15.999             
              
Atoms # charge            
              
1 2 2.40015599722463 208.1024391517473 24.272719360611404 1.9725 0 0 0      
2 3 -1.19992203742308 206.13757302257216 24.09934881980186 1.9725 0 0 0      
3 3 -1.19992203742308 208.1024391517473 24.272719360611404 0.0 0 0 0      
4 2 2.40015599722463 212.03217141009736 24.619460442230547 1.9725 0 0 0      
5 3 -1.19992203742308 210.06730528092223 24.446089901420976 1.9725 0 0 0      
6 3 -1.19992203742308 212.03217141009736 24.619460442230547 0.0 0 0 0      
7 2 2.40015599722463 215.96190366844743 24.96620152384969 1.9725 0 0 0      
8 3 -1.19992203742308 213.9970375392724 24.79283098304012 1.9725 0 0 0      
9 3 -1.19992203742308 215.96190366844743 24.96620152384969 0.0 0 0 0      
10 2 2.40015599722463 219.8916359267976 25.312942605468805 1.9725 0 0 0      
11 3 -1.19992203742308 217.92676979762257 25.139572064659234 1.9725 0 0 0      
12 3 -1.19992203742308 219.8916359267976 25.312942605468805 0.0 0 0 0      
13 2 2.40015599722463 223.82136818514775 25.65968368708792 1.9725 0 0 0      
14 3 -1.19992203742308 221.85650205597267 25.486313146278377 1.9725 0 0 0      
15 3 -1.19992203742308 223.82136818514775 25.65968368708792 0.0 0 0 0      
16 2 2.40015599722463 227.75110044349788 26.006424768707063 1.9725 0 0 0      
17 3 -1.19992203742308 225.7862343143228 25.83305422789749 1.9725 0 0 0      
18 3 -1.19992203742308 227.9244709843074 24.041558639532013 1.9725 0 0 0      
19 3 -1.19992203742308 227.75110044349788 26.006424768707063 0.0 0 0 0      
20 1 1.20020797227036 229.8893371134825 24.214929180341585 0.0 0 0 0      
21 2 2.40015599722463 231.680832701848 26.353165850326207 1.9725 0 0 0      
22 3 -1.19992203742308 229.71596657267293 26.179795309516635 1.9725 0 0 0      
23 3 -1.19992203742308 231.8542032426575 24.388299721151157 1.9725 0 0 0      
24 3 -1.19992203742308 231.680832701848 26.353165850326207 0.0 0 0 0      
25 1 1.20020797227036 233.8190693718326 24.561670261960728 0.0 0 0 0      
26 2 2.40015599722463 235.61056496019813 26.69990693194532 1.9725 0 0 0      
27 3 -1.19992203742308 233.64569883102308 26.526536391135778 1.9725 0 0 0      
28 3 -1.19992203742308 235.7839355010077 24.73504080277027 1.9725 0 0 0      
29 3 -1.19992203742308 235.61056496019813 26.69990693194532 0.0 0 0 0      
30 2 2.40015599722463 160.59891096992658 24.041558639532013 1.9725 0 0 0      
31 3 -1.19992203742308 160.59891096992658 24.041558639532013 0.0 0 0 0      
32 2 2.40015599722463 164.52864322827668 24.388299721151157 1.9725 0 0 0      
33 3 -1.19992203742308 162.56377709910157 24.214929180341585 1.9725 0 0 0      
34 3 -1.19992203742308 164.52864322827668 24.388299721151157 0.0 0 0 0      
35 2 2.40015599722463 168.45837548662678 24.73504080277027 1.9725 0 0 0      
36 3 -1.19992203742308 166.4935093574518 24.5616702619607 1.9725 0 0 0      
37 3 -1.19992203742308 168.45837548662678 24.73504080277027 0.0 0 0 0      
38 2 2.40015599722463 172.38810774497694 25.081781884389386 1.9725 0 0 0      
39 3 -1.19992203742308 170.42324161580189 24.908411343579843 1.9725 0 0 0      
40 3 -1.19992203742308 172.38810774497694 25.081781884389386 0.0 0 0 0      
41 2 2.40015599722463 176.3178400033271 25.42852296600853 1.9725 0 0 0      
42 3 -1.19992203742308 174.352973874152 25.255152425198958 1.9725 0 0 0      
43 3 -1.19992203742308 176.3178400033271 25.42852296600853 0.0 0 0 0      
44 2 2.40015599722463 180.2475722616772 25.775264047627672 1.9725 0 0 0      
45 3 -1.19992203742308 178.28270613250208 25.6018935068181 1.9725 0 0 0      
46 3 -1.19992203742308 180.2475722616772 25.775264047627672 0.0 0 0 0      
47 1 1.20020797227036 237.4020605485636 113.67412823807683 3.945 0 0 0      
48 2 2.40015599722463 184.1773045200273 26.122005129246787 1.9725 0 0 0      
49 3 -1.19992203742308 182.2124383908523 25.948634588437216 1.9725 0 0 0      
50 3 -1.19992203742308 184.3506750608369 24.15713900007171 1.9725 0 0 0      
51 3 -1.19992203742308 184.1773045200273 26.122005129246787 0.0 0 0 0      
52 1 1.20020797227036 186.3155411900119 24.33050954088128 0.0 0 0 0      
53 2 2.40015599722463 188.10703677837745 26.468746210865902 1.9725 0 0 0      
54 3 -1.19992203742308 186.1421706492024 26.29537567005636 1.9725 0 0 0      
55 3 -1.19992203742308 188.28040731918705 24.503880081690852 1.9725 0 0 0      
56 3 -1.19992203742308 188.10703677837745 26.468746210865902 0.0 0 0 0      
57 1 1.20020797227036 190.24527344836207 24.677250622500424 0.0 0 0 0      
58 2 2.40015599722463 192.0367690367276 26.815487292485045 1.9725 0 0 0      
59 3 -1.19992203742308 190.0719029075525 26.642116751675474 1.9725 0 0 0      
60 3 -1.19992203742308 192.21013957753712 24.850621163309995 1.9725 0 0 0      
61 3 -1.19992203742308 192.0367690367276 26.815487292485045 0.0 0 0 0      
62 1 1.20020797227036 194.17500570671223 25.02399170411954 0.0 0 0 0      
63 2 2.40015599722463 195.9665012950777 27.16222837410419 1.9725 0 0 0      
64 3 -1.19992203742308 194.0016351659026 26.988857833294617 1.9725 0 0 0      
65 3 -1.19992203742308 196.1398718358872 25.19736224492911 1.9725 0 0 0      
66 3 -1.19992203742308 195.9665012950777 27.16222837410419 0.0 0 0 0      
67 1 1.20020797227036 198.10473796506236 25.370732785738653 0.0 0 0 0      
68 2 2.40015599722463 199.8962335534278 27.508969455723303 1.9725 0 0 0      
69 3 -1.19992203742308 197.9313674242528 27.33559891491373 1.9725 0 0 0      
70 3 -1.19992203742308 200.06960409423743 25.544103326548225 1.9725 0 0 0      
71 3 -1.19992203742308 199.8962335534278 27.508969455723303 0.0 0 0 0      
72 1 1.20020797227036 202.03447022341243 25.717473867357796 0.0 0 0 0      
73 2 2.40015599722463 203.825965811778 27.855710537342418 1.9725 0 0 0      
74 3 -1.19992203742308 201.8610996826029 27.682339996532875 1.9725 0 0 0      
75 3 -1.19992203742308 203.99933635258756 25.890844408167368 1.9725 0 0 0      
76 3 -1.19992203742308 203.825965811778 27.855710537342418 0.0 0 0 0      
77 1 1.20020797227036 205.96420248176256 26.06421494897694 0.0 0 0 0      
78 2 2.40015599722463 207.7556980701281 28.20245161896156 1.9725 0 0 0      
79 3 -1.19992203742308 205.790831940953 28.02908107815199 1.9725 0 0 0      
80 3 -1.19992203742308 207.92906861093763 26.23758548978651 1.9725 0 0 0      
81 3 -1.19992203742308 207.7556980701281 28.20245161896156 0.0 0 0 0      
82 1 1.20020797227036 209.89393474011277 26.410956030596054 0.0 0 0 0      
83 2 2.40015599722463 211.68543032847825 28.549192700580704 1.9725 0 0 0      
84 3 -1.19992203742308 209.7205641993031 28.375822159771133 1.9725 0 0 0      
85 3 -1.19992203742308 211.85880086928773 26.584326571405626 1.9725 0 0 0      
86 3 -1.19992203742308 211.68543032847825 28.549192700580704 0.0 0 0 0      
87 1 1.20020797227036 213.82366699846284 26.75769711221517 0.0 0 0 0      
88 2 2.40015599722463 215.61516258682832 28.89593378219982 1.9725 0 0 0      
89 3 -1.19992203742308 213.65029645765327 28.722563241390247 1.9725 0 0 0      
90 3 -1.19992203742308 215.78853312763795 26.93106765302474 1.9725 0 0 0      
91 3 -1.19992203742308 215.61516258682832 28.89593378219982 0.0 0 0 0      
92 1 1.20020797227036 217.7533992568129 27.104438193834312 0.0 0 0 0      
93 2 2.40015599722463 219.54489484517848 29.242674863818962 1.9725 0 0 0      
94 3 -1.19992203742308 217.58002871600343 29.06930432300939 1.9725 0 0 0      
95 3 -1.19992203742308 219.71826538598805 27.277808734643884 1.9725 0 0 0      
96 3 -1.19992203742308 219.54489484517848 29.242674863818962 0.0 0 0 0      
97 1 1.20020797227036 221.6831315151631 27.451179275453455 0.0 0 0 0      
98 2 2.40015599722463 223.47462710352863 29.589415945438077 1.9725 0 0 0      
99 3 -1.19992203742308 221.50976097435355 29.416045404628505 1.9725 0 0 0      
100 3 -1.19992203742308 223.64799764433812 27.624549816263027 1.9725 0 0 0      
101 3 -1.19992203742308 223.47462710352863 29.589415945438077 0.0 0 0 0      
102 1 1.20020797227036 225.61286377351323 27.79792035707257 0.0 0 0 0      
103 2 2.40015599722463 227.40435936187876 29.93615702705719 1.9725 0 0 0      
104 3 -1.19992203742308 225.43949323270363 29.76278648624765 1.9725 0 0 0      
105 3 -1.19992203742308 227.57772990268825 27.97129089788214 1.9725 0 0 0      
106 3 -1.19992203742308 227.40435936187876 29.93615702705719 0.0 0 0 0      
107 1 1.20020797227036 229.54259603186333 28.144661438691685 0.0 0 0 0      
108 2 2.40015599722463 231.33409162022883 30.282898108676335 1.9725 0 0 0      
109 3 -1.19992203742308 229.36922549105375 30.109527567866763 1.9725 0 0 0      
110 3 -1.19992203742308 231.5074621610384 28.318031979501257 1.9725 0 0 0      
111 3 -1.19992203742308 231.33409162022883 30.282898108676335 0.0 0 0 0      
112 1 1.20020797227036 233.47232829021343 28.491402520310828 0.0 0 0 0      
113 2 2.40015599722463 235.263823878579 30.62963919029545 1.9725 0 0 0      
114 3 -1.19992203742308 233.29895774940397 30.456268649485907 1.9725 0 0 0      
115 3 -1.19992203742308 235.43719441938856 28.6647730611204 1.9725 0 0 0      
116 3 -1.19992203742308 235.263823878579 30.62963919029545 0.0 0 0 0      
117 1 1.20020797227036 237.4020605485636 28.83814360192997 0.0 0 0 0      
118 3 -1.19992203742308 237.22869000775404 30.80300973110502 1.9725 0 0 0      
119 3 -1.19992203742308 235.61056496019813 115.81236490806151 3.945 0 0 0      
120 3 -1.19992203742308 235.43719441938856 113.8474987788864 5.917499999999999 0 0 0      
121 2 2.40015599722463 117.025115046456 24.15713900007171 1.9725 0 0 0      
122 3 -1.19992203742308 233.64569883102308 115.98573544887103 5.917499999999999 0 0 0      
123 3 -1.19992203742308 117.025115046456 24.15713900007171 0.0 0 0 0      
124 2 2.40015599722463 120.95484730480617 24.503880081690852 1.9725 0 0 0      
125 3 -1.19992203742308 118.9899811756311 24.33050954088128 1.9725 0 0 0      
126 3 -1.19992203742308 120.95484730480617 24.503880081690852 0.0 0 0 0      
127 2 2.40015599722463 124.88457956315632 24.850621163309995 1.9725 0 0 0      
128 3 -1.19992203742308 122.9197134339812 24.677250622500424 1.9725 0 0 0      
129 3 -1.19992203742308 124.88457956315632 24.850621163309995 0.0 0 0 0      
130 2 2.40015599722463 128.8143118215064 25.19736224492911 1.9725 0 0 0      
131 3 -1.19992203742308 126.8494456923313 25.02399170411954 1.9725 0 0 0      
132 3 -1.19992203742308 128.8143118215064 25.19736224492911 0.0 0 0 0      
133 2 2.40015599722463 132.7440440798565 25.544103326548225 1.9725 0 0 0      
134 3 -1.19992203742308 130.77917795068146 25.37073278573868 1.9725 0 0 0      
135 3 -1.19992203742308 132.7440440798565 25.544103326548225 0.0 0 0 0      
136 2 2.40015599722463 235.61056496019813 115.81236490806151 5.917499999999999 0 0 0      
137 2 2.40015599722463 136.67377633820666 25.890844408167368 1.9725 0 0 0      
138 3 -1.19992203742308 134.7089102090316 25.717473867357796 1.9725 0 0 0      
139 1 1.20020797227036 233.47232829021343 114.02086931969598 3.945 0 0 0      
140 3 -1.19992203742308 136.67377633820666 25.890844408167368 0.0 0 0 0      
141 1 1.20020797227036 138.81201300819123 24.09934881980186 0.0 0 0 0      
142 2 2.40015599722463 140.60350859655682 26.23758548978651 1.9725 0 0 0      
143 3 -1.19992203742308 138.63864246738171 26.06421494897694 1.9725 0 0 0      
144 3 -1.19992203742308 140.77687913736634 24.272719360611433 1.9725 0 0 0      
145 3 -1.19992203742308 140.60350859655682 26.23758548978651 0.0 0 0 0      
146 1 1.20020797227036 142.7417452665414 24.446089901421004 0.0 0 0 0      
147 2 2.40015599722463 144.53324085490692 26.584326571405626 1.9725 0 0 0      
148 3 -1.19992203742308 142.5683747257318 26.410956030596054 1.9725 0 0 0      
149 3 -1.19992203742308 144.70661139571644 24.619460442230547 1.9725 0 0 0      
150 3 -1.19992203742308 144.53324085490692 26.584326571405626 0.0 0 0 0      
151 1 1.20020797227036 146.67147752489154 24.79283098304012 0.0 0 0 0      
152 2 2.40015599722463 148.46297311325702 26.93106765302474 1.9725 0 0 0      
153 3 -1.19992203742308 146.49810698408197 26.757697112215197 1.9725 0 0 0      
154 3 -1.19992203742308 148.6363436540666 24.96620152384969 1.9725 0 0 0      
155 3 -1.19992203742308 148.46297311325702 26.93106765302474 0.0 0 0 0      
156 1 1.20020797227036 150.60120978324164 25.139572064659262 0.0 0 0 0      
157 2 2.40015599722463 152.39270537160718 27.277808734643884 1.9725 0 0 0      
158 3 -1.19992203742308 150.42783924243213 27.104438193834312 1.9725 0 0 0      
159 3 -1.19992203742308 152.56607591241675 25.312942605468834 1.9725 0 0 0      
160 3 -1.19992203742308 152.39270537160718 27.277808734643884 0.0 0 0 0      
161 1 1.20020797227036 154.53094204159174 25.486313146278377 0.0 0 0 0      
162 2 2.40015599722463 156.32243762995734 27.624549816263027 1.9725 0 0 0      
163 3 -1.19992203742308 154.35757150078223 27.451179275453455 1.9725 0 0 0      
164 3 -1.19992203742308 156.49580817076685 25.65968368708795 1.9725 0 0 0      
165 3 -1.19992203742308 156.32243762995734 27.624549816263027 0.0 0 0 0      
166 1 1.20020797227036 158.4606742999419 25.83305422789752 0.0 0 0 0      
167 2 2.40015599722463 160.25216988830744 27.97129089788214 1.9725 0 0 0      
168 3 -1.19992203742308 158.28730375913233 27.79792035707257 1.9725 0 0 0      
169 3 -1.19992203742308 160.42554042911695 26.00642476870709 1.9725 0 0 0      
170 3 -1.19992203742308 160.25216988830744 27.97129089788214 0.0 0 0 0      
171 1 1.20020797227036 162.39040655829206 26.179795309516635 0.0 0 0 0      
172 2 2.40015599722463 164.18190214665754 28.318031979501257 1.9725 0 0 0      
173 3 -1.19992203742308 162.21703601748249 28.144661438691713 1.9725 0 0 0      
174 3 -1.19992203742308 164.35527268746705 26.353165850326207 1.9725 0 0 0      
175 3 -1.19992203742308 164.18190214665754 28.318031979501257 0.0 0 0 0      
176 1 1.20020797227036 166.32013881664216 26.526536391135778 0.0 0 0 0      
177 2 2.40015599722463 168.1116344050077 28.6647730611204 1.9725 0 0 0      
178 3 -1.19992203742308 166.14676827583264 28.491402520310828 1.9725 0 0 0      
179 3 -1.19992203742308 168.28500494581726 26.69990693194532 1.9725 0 0 0      
180 3 -1.19992203742308 168.1116344050077 28.6647730611204 0.0 0 0 0      
181 1 1.20020797227036 170.24987107499226 26.873277472754893 0.0 0 0 0      
182 2 2.40015599722463 172.04136666335785 29.011514142739543 1.9725 0 0 0      
183 3 -1.19992203742308 170.07650053418274 28.83814360192997 1.9725 0 0 0      
184 3 -1.19992203742308 172.21473720416736 27.046648013564464 1.9725 0 0 0      
185 3 -1.19992203742308 172.04136666335785 29.011514142739543 0.0 0 0 0      
186 1 1.20020797227036 174.1796033333424 27.220018554374036 0.0 0 0 0      
187 2 2.40015599722463 175.97109892170795 29.358255224358658 1.9725 0 0 0      
188 3 -1.19992203742308 174.00623279253284 29.184884683549086 1.9725 0 0 0      
189 3 -1.19992203742308 176.14446946251746 27.39338909518358 1.9725 0 0 0      
190 3 -1.19992203742308 175.97109892170795 29.358255224358658 0.0 0 0 0      
191 1 1.20020797227036 178.10933559169257 27.56675963599315 0.0 0 0 0      
192 2 2.40015599722463 179.90083118005805 29.704996305977772 1.9725 0 0 0      
193 3 -1.19992203742308 177.935965050883 29.53162576516823 1.9725 0 0 0      
194 3 -1.19992203742308 180.07420172086756 27.740130176802722 1.9725 0 0 0      
195 3 -1.19992203742308 179.90083118005805 29.704996305977772 0.0 0 0 0      
196 1 1.20020797227036 182.03906785004267 27.913500717612294 0.0 0 0 0      
197 2 2.40015599722463 183.8305634384082 30.051737387596916 1.9725 0 0 0      
198 3 -1.19992203742308 181.8656973092332 29.878366846787344 1.9725 0 0 0      
199 3 -1.19992203742308 184.00393397921775 28.086871258421866 1.9725 0 0 0      
200 3 -1.19992203742308 183.8305634384082 30.051737387596916 0.0 0 0 0      
201 1 1.20020797227036 185.9688001083928 28.26024179923141 0.0 0 0 0      
202 2 2.40015599722463 187.7602956967584 30.39847846921606 1.9725 0 0 0      
203 3 -1.19992203742308 185.79542956758328 30.225107928406487 1.9725 0 0 0      
204 3 -1.19992203742308 187.93366623756788 28.43361234004098 1.9725 0 0 0      
205 3 -1.19992203742308 187.7602956967584 30.39847846921606 0.0 0 0 0      
206 1 1.20020797227036 189.89853236674293 28.606982880850552 0.0 0 0 0      
207 2 2.40015599722463 191.6900279551085 30.745219550835174 1.9725 0 0 0      
208 3 -1.19992203742308 189.72516182593336 30.571849010025602 1.9725 0 0 0      
209 3 -1.19992203742308 191.863398495918 28.780353421660095 1.9725 0 0 0      
210 3 -1.19992203742308 191.6900279551085 30.745219550835174 0.0 0 0 0      
211 1 1.20020797227036 193.82826462509308 28.953723962469667 0.0 0 0 0      
212 2 2.40015599722463 195.61976021345856 31.09196063245429 1.9725 0 0 0      
213 3 -1.19992203742308 193.6548940842835 30.918590091644717 1.9725 0 0 0      
214 3 -1.19992203742308 195.79313075426808 29.12709450327924 1.9725 0 0 0      
215 3 -1.19992203742308 195.61976021345856 31.09196063245429 0.0 0 0 0      
216 1 1.20020797227036 197.7579968834432 29.30046504408881 0.0 0 0 0      
217 2 2.40015599722463 199.54949247180872 31.43870171407343 1.9725 0 0 0      
218 3 -1.19992203742308 197.58462634263367 31.26533117326386 1.9725 0 0 0      
219 3 -1.19992203742308 199.7228630126183 29.473835584898353 1.9725 0 0 0      
220 3 -1.19992203742308 199.54949247180872 31.43870171407343 0.0 0 0 0      
221 1 1.20020797227036 201.68772914179328 29.647206125707925 0.0 0 0 0      
222 2 2.40015599722463 203.47922473015888 31.785442795692575 1.9725 0 0 0      
223 3 -1.19992203742308 201.51435860098377 31.612072254883003 1.9725 0 0 0      
224 3 -1.19992203742308 203.6525952709684 29.820576666517496 1.9725 0 0 0      
225 3 -1.19992203742308 203.47922473015888 31.785442795692575 0.0 0 0 0      
226 1 1.20020797227036 205.61746140014344 29.993947207327068 0.0 0 0 0      
227 2 2.40015599722463 207.40895698850895 32.13218387731169 1.9725 0 0 0      
228 3 -1.19992203742308 205.44409085933387 31.958813336502118 1.9725 0 0 0      
229 3 -1.19992203742308 207.5823275293185 30.16731774813661 1.9725 0 0 0      
230 3 -1.19992203742308 207.40895698850895 32.13218387731169 0.0 0 0 0      
231 1 1.20020797227036 209.5471936584936 30.340688288946183 0.0 0 0 0      
232 2 2.40015599722463 211.33868924685908 32.478924958930804 1.9725 0 0 0      
233 3 -1.19992203742308 209.37382311768403 32.30555441812123 1.9725 0 0 0      
234 3 -1.19992203742308 211.5120597876686 30.514058829755754 1.9725 0 0 0      
235 3 -1.19992203742308 211.33868924685908 32.478924958930804 0.0 0 0 0      
236 1 1.20020797227036 213.4769259168437 30.687429370565326 0.0 0 0 0      
237 2 2.40015599722463 215.26842150520923 32.82566604054995 1.9725 0 0 0      
238 3 -1.19992203742308 213.30355537603415 32.652295499740376 1.9725 0 0 0      
239 3 -1.19992203742308 215.4417920460188 30.860799911374897 1.9725 0 0 0      
240 3 -1.19992203742308 215.26842150520923 32.82566604054995 0.0 0 0 0      
241 1 1.20020797227036 217.4066581751938 31.03417045218444 0.0 0 0 0      
242 2 2.40015599722463 219.1981537635594 33.17240712216909 1.9725 0 0 0      
243 3 -1.19992203742308 217.23328763438428 32.99903658135952 1.9725 0 0 0      
244 3 -1.19992203742308 219.3715243043689 31.207540992994012 1.9725 0 0 0      
245 3 -1.19992203742308 219.1981537635594 33.17240712216909 0.0 0 0 0      
246 1 1.20020797227036 221.33639043354395 31.380911533803555 0.0 0 0 0      
247 2 2.40015599722463 223.1278860219095 33.519148203788205 1.9725 0 0 0      
248 3 -1.19992203742308 221.1630198927344 33.345777662978634 1.9725 0 0 0      
249 3 -1.19992203742308 223.301256562719 31.554282074613127 1.9725 0 0 0      
250 3 -1.19992203742308 223.1278860219095 33.519148203788205 0.0 0 0 0      
251 1 1.20020797227036 225.2661226918941 31.7276526154227 0.0 0 0 0      
252 2 2.40015599722463 227.0576182802596 33.86588928540732 1.9725 0 0 0      
253 3 -1.19992203742308 225.0927521510845 33.69251874459775 1.9725 0 0 0      
254 3 -1.19992203742308 227.2309888210691 31.90102315623227 1.9725 0 0 0      
255 3 -1.19992203742308 227.0576182802596 33.86588928540732 0.0 0 0 0      
256 1 1.20020797227036 229.1958549502442 32.07439369704184 0.0 0 0 0      
257 2 2.40015599722463 230.9873505386097 34.21263036702646 1.9725 0 0 0      
258 3 -1.19992203742308 229.0224844094347 34.03925982621689 1.9725 0 0 0      
259 3 -1.19992203742308 231.1607210794193 32.24776423785141 1.9725 0 0 0      
260 3 -1.19992203742308 230.9873505386097 34.21263036702646 0.0 0 0 0      
261 1 1.20020797227036 233.1255872085943 32.42113477866096 0.0 0 0 0      
262 2 2.40015599722463 234.9170827969599 34.55937144864561 1.9725 0 0 0      
263 3 -1.19992203742308 232.9522166677848 34.386000907836035 1.9725 0 0 0      
264 3 -1.19992203742308 235.09045333776945 32.59450531947053 1.9725 0 0 0      
265 3 -1.19992203742308 234.9170827969599 34.55937144864561 0.0 0 0 0      
266 1 1.20020797227036 237.05531946694447 32.7678758602801 0.0 0 0 0      
267 3 -1.19992203742308 236.8819489261349 34.73274198945515 1.9725 0 0 0      
268 3 -1.19992203742308 231.680832701848 116.15910598968065 3.945 0 0 0      
269 3 -1.19992203742308 231.5074621610384 114.19423986050555 5.917499999999999 0 0 0      
270 3 -1.19992203742308 229.71596657267293 116.33247653049017 5.917499999999999 0 0 0      
271 2 2.40015599722463 73.45131912298547 24.272719360611433 1.9725 0 0 0      
272 3 -1.19992203742308 71.48645299381042 24.09934881980186 1.9725 0 0 0      
273 3 -1.19992203742308 73.45131912298547 24.272719360611433 0.0 0 0 0      
274 2 2.40015599722463 77.38105138133562 24.619460442230547 1.9725 0 0 0      
275 3 -1.19992203742308 75.41618525216052 24.446089901421004 1.9725 0 0 0      
276 3 -1.19992203742308 77.38105138133562 24.619460442230547 0.0 0 0 0      
277 2 2.40015599722463 81.31078363968572 24.96620152384969 1.9725 0 0 0      
278 3 -1.19992203742308 79.34591751051067 24.79283098304012 1.9725 0 0 0      
279 3 -1.19992203742308 81.31078363968572 24.96620152384969 0.0 0 0 0      
280 2 2.40015599722463 85.24051589803588 25.312942605468834 1.9725 0 0 0      
281 3 -1.19992203742308 83.27564976886083 25.139572064659262 1.9725 0 0 0      
282 3 -1.19992203742308 85.24051589803588 25.312942605468834 0.0 0 0 0      
283 2 2.40015599722463 89.17024815638598 25.65968368708795 1.9725 0 0 0      
284 3 -1.19992203742308 87.20538202721093 25.486313146278377 1.9725 0 0 0      
285 3 -1.19992203742308 89.17024815638598 25.65968368708795 0.0 0 0 0      
286 2 2.40015599722463 231.680832701848 116.15910598968065 5.917499999999999 0 0 0      
287 2 2.40015599722463 93.09998041473614 26.00642476870709 1.9725 0 0 0      
288 3 -1.19992203742308 91.13511428556104 25.83305422789752 1.9725 0 0 0      
289 3 -1.19992203742308 93.27335095554572 24.041558639532013 1.9725 0 0 0      
290 3 -1.19992203742308 93.09998041473614 26.00642476870709 0.0 0 0 0      
291 1 1.20020797227036 95.23821708472076 24.214929180341585 0.0 0 0 0      
292 2 2.40015599722463 97.02971267308624 26.353165850326207 1.9725 0 0 0      
293 3 -1.19992203742308 95.0648465439112 26.179795309516635 1.9725 0 0 0      
294 3 -1.19992203742308 97.2030832138958 24.388299721151157 1.9725 0 0 0      
295 3 -1.19992203742308 97.02971267308624 26.353165850326207 0.0 0 0 0      
296 1 1.20020797227036 99.16794934307086 24.5616702619607 0.0 0 0 0      
297 2 2.40015599722463 100.95944493143634 26.69990693194532 1.9725 0 0 0      
298 3 -1.19992203742308 98.99457880226134 26.526536391135778 1.9725 0 0 0      
299 3 -1.19992203742308 101.13281547224597 24.73504080277027 1.9725 0 0 0      
300 3 -1.19992203742308 100.95944493143634 26.69990693194532 0.0 0 0 0      
301 1 1.20020797227036 103.09768160142102 24.908411343579843 0.0 0 0 0      
302 2 2.40015599722463 104.8891771897865 27.046648013564464 1.9725 0 0 0      
303 3 -1.19992203742308 102.92431106061144 26.873277472754893 1.9725 0 0 0      
304 3 -1.19992203742308 105.06254773059608 25.081781884389386 1.9725 0 0 0      
305 3 -1.19992203742308 104.8891771897865 27.046648013564464 0.0 0 0 0      
306 1 1.20020797227036 107.02741385977112 25.255152425198958 0.0 0 0 0      
307 2 2.40015599722463 108.81890944813664 27.39338909518358 1.9725 0 0 0      
308 3 -1.19992203742308 106.85404331896154 27.220018554374036 1.9725 0 0 0      
309 3 -1.19992203742308 108.99227998894617 25.42852296600853 1.9725 0 0 0      
310 3 -1.19992203742308 108.81890944813664 27.39338909518358 0.0 0 0 0      
311 1 1.20020797227036 110.95714611812129 25.6018935068181 0.0 0 0 0      
312 2 2.40015599722463 112.74864170648677 27.740130176802722 1.9725 0 0 0      
313 3 -1.19992203742308 110.7837755773117 27.56675963599315 1.9725 0 0 0      
314 3 -1.19992203742308 112.92201224729632 25.775264047627672 1.9725 0 0 0      
315 3 -1.19992203742308 112.74864170648677 27.740130176802722 0.0 0 0 0      
316 1 1.20020797227036 114.88687837647136 25.948634588437216 0.0 0 0 0      
317 2 2.40015599722463 116.67837396483684 28.086871258421866 1.9725 0 0 0      
318 3 -1.19992203742308 114.71350783566186 27.913500717612294 1.9725 0 0 0      
319 3 -1.19992203742308 116.85174450564648 26.122005129246787 1.9725 0 0 0      
320 3 -1.19992203742308 116.67837396483684 28.086871258421866 0.0 0 0 0      
321 1 1.20020797227036 118.81661063482152 26.29537567005636 0.0 0 0 0      
322 2 2.40015599722463 120.608106223187 28.43361234004098 1.9725 0 0 0      
323 3 -1.19992203742308 118.64324009401196 28.26024179923141 1.9725 0 0 0      
324 3 -1.19992203742308 120.78147676399658 26.468746210865902 1.9725 0 0 0      
325 3 -1.19992203742308 120.608106223187 28.43361234004098 0.0 0 0 0      
326 1 1.20020797227036 122.74634289317164 26.642116751675474 0.0 0 0 0      
327 2 2.40015599722463 124.53783848153716 28.780353421660095 1.9725 0 0 0      
328 3 -1.19992203742308 122.57297235236206 28.606982880850552 1.9725 0 0 0      
329 3 -1.19992203742308 124.71120902234668 26.815487292485045 1.9725 0 0 0      
330 3 -1.19992203742308 124.53783848153716 28.780353421660095 0.0 0 0 0      
331 1 1.20020797227036 126.6760751515218 26.988857833294617 0.0 0 0 0      
332 2 2.40015599722463 128.46757073988726 29.12709450327924 1.9725 0 0 0      
333 3 -1.19992203742308 126.5027046107122 28.953723962469667 1.9725 0 0 0      
334 3 -1.19992203742308 128.64094128069684 27.16222837410419 1.9725 0 0 0      
335 3 -1.19992203742308 128.46757073988726 29.12709450327924 0.0 0 0 0      
336 1 1.20020797227036 130.6058074098719 27.33559891491373 0.0 0 0 0      
337 2 2.40015599722463 132.39730299823742 29.473835584898353 1.9725 0 0 0      
338 3 -1.19992203742308 130.43243686906237 29.30046504408881 1.9725 0 0 0      
339 3 -1.19992203742308 132.570673539047 27.508969455723303 1.9725 0 0 0      
340 3 -1.19992203742308 132.39730299823742 29.473835584898353 0.0 0 0 0      
341 1 1.20020797227036 134.53553966822204 27.682339996532875 0.0 0 0 0      
342 2 2.40015599722463 136.32703525658752 29.820576666517496 1.9725 0 0 0      
343 3 -1.19992203742308 134.36216912741247 29.647206125707925 1.9725 0 0 0      
344 3 -1.19992203742308 136.5004057973971 27.855710537342418 1.9725 0 0 0      
345 3 -1.19992203742308 136.32703525658752 29.820576666517496 0.0 0 0 0      
346 1 1.20020797227036 138.46527192657214 28.02908107815199 0.0 0 0 0      
347 2 2.40015599722463 140.25676751493768 30.16731774813661 1.9725 0 0 0      
348 3 -1.19992203742308 138.29190138576257 29.993947207327068 1.9725 0 0 0      
349 3 -1.19992203742308 140.4301380557472 28.20245161896156 1.9725 0 0 0      
350 3 -1.19992203742308 140.25676751493768 30.16731774813661 0.0 0 0 0      
351 1 1.20020797227036 142.3950041849223 28.375822159771133 0.0 0 0 0      
352 2 2.40015599722463 144.18649977328778 30.514058829755754 1.9725 0 0 0      
353 3 -1.19992203742308 142.22163364411267 30.340688288946183 1.9725 0 0 0      
354 3 -1.19992203742308 144.35987031409735 28.549192700580704 1.9725 0 0 0      
355 3 -1.19992203742308 144.18649977328778 30.514058829755754 0.0 0 0 0      
356 1 1.20020797227036 146.3247364432724 28.722563241390247 0.0 0 0 0      
357 2 2.40015599722463 148.11623203163788 30.860799911374897 1.9725 0 0 0      
358 3 -1.19992203742308 146.15136590246283 30.687429370565326 1.9725 0 0 0      
359 3 -1.19992203742308 148.2896025724475 28.89593378219982 1.9725 0 0 0      
360 3 -1.19992203742308 148.11623203163788 30.860799911374897 0.0 0 0 0      
361 1 1.20020797227036 150.25446870162256 29.06930432300939 0.0 0 0 0      
362 2 2.40015599722463 152.04596428998804 31.207540992994012 1.9725 0 0 0      
363 3 -1.19992203742308 150.081098160813 31.03417045218444 1.9725 0 0 0      
364 3 -1.19992203742308 152.2193348307976 29.242674863818962 1.9725 0 0 0      
365 3 -1.19992203742308 152.04596428998804 31.207540992994012 0.0 0 0 0      
366 1 1.20020797227036 154.18420095997266 29.416045404628505 0.0 0 0 0      
367 2 2.40015599722463 155.9756965483382 31.554282074613127 1.9725 0 0 0      
368 3 -1.19992203742308 154.01083041916309 31.380911533803555 1.9725 0 0 0      
369 3 -1.19992203742308 156.1490670891477 29.589415945438077 1.9725 0 0 0      
370 3 -1.19992203742308 155.9756965483382 31.554282074613127 0.0 0 0 0      
371 1 1.20020797227036 158.1139332183228 29.76278648624765 0.0 0 0 0      
372 2 2.40015599722463 159.9054288066883 31.90102315623227 1.9725 0 0 0      
373 3 -1.19992203742308 157.9405626775132 31.7276526154227 1.9725 0 0 0      
374 3 -1.19992203742308 160.07879934749786 29.93615702705719 1.9725 0 0 0      
375 3 -1.19992203742308 159.9054288066883 31.90102315623227 0.0 0 0 0      
376 1 1.20020797227036 162.0436654766729 30.109527567866763 0.0 0 0 0      