LAMMPS data file via write_data, version 19 Nov 2024, timestep = 0, units =.1 metal
              
13872 atoms             
3 atom types            
              
0 237.520453066678 xlo xhi           
-47.5040906133356 47.5040906133356 ylo yhi           
0 7.89 zlo zhi           
              
Masses              
              
1 87.62             
2 47.867             
3 15.999             
              
Atoms # charge            
              
1 2 2.40015599722463 208.1024391517473 -23.23137125272418 1.9725 0 0 0      
2 3 -1.19992203742308 206.13757302257216 -23.404741793533738 1.9725 0 0 0      
3 3 -1.19992203742308 208.1024391517473 -23.23137125272418 0.0 0 0 0      
4 2 2.40015599722463 212.03217141009736 -22.884630171105044 1.9725 0 0 0      
5 3 -1.19992203742308 210.06730528092223 -23.05800071191461 1.9725 0 0 0      
6 3 -1.19992203742308 212.03217141009736 -22.884630171105044 0.0 0 0 0      
7 2 2.40015599722463 215.96190366844743 -22.537889089485915 1.9725 0 0 0      
8 3 -1.19992203742308 213.9970375392724 -22.71125963029548 1.9725 0 0 0      
9 3 -1.19992203742308 215.96190366844743 -22.537889089485915 0.0 0 0 0      
10 2 2.40015599722463 219.8916359267976 -22.191148007866786 1.9725 0 0 0      
11 3 -1.19992203742308 217.92676979762257 -22.364518548676358 1.9725 0 0 0      
12 3 -1.19992203742308 219.8916359267976 -22.191148007866786 0.0 0 0 0      
13 2 2.40015599722463 223.82136818514775 -21.844406926247665 1.9725 0 0 0      
14 3 -1.19992203742308 221.85650205597267 -22.01777746705723 1.9725 0 0 0      
15 3 -1.19992203742308 223.82136818514775 -21.844406926247665 0.0 0 0 0      
16 2 2.40015599722463 227.75110044349788 -21.497665844628536 1.9725 0 0 0      
17 3 -1.19992203742308 225.7862343143228 -21.671036385438093 1.9725 0 0 0      
18 3 -1.19992203742308 227.9244709843074 -23.462531973803586 1.9725 0 0 0      
19 3 -1.19992203742308 227.75110044349788 -21.497665844628536 0.0 0 0 0      
20 1 1.20020797227036 229.8893371134825 -23.289161432994014 0.0 0 0 0      
21 2 2.40015599722463 231.680832701848 -21.150924763009407 1.9725 0 0 0      
22 3 -1.19992203742308 229.71596657267293 -21.324295303818964 1.9725 0 0 0      
23 3 -1.19992203742308 231.8542032426575 -23.115790892184457 1.9725 0 0 0      
24 3 -1.19992203742308 231.680832701848 -21.150924763009407 0.0 0 0 0      
25 1 1.20020797227036 233.8190693718326 -22.942420351374885 0.0 0 0 0      
26 2 2.40015599722463 235.61056496019813 -20.80418368139027 1.9725 0 0 0      
27 3 -1.19992203742308 233.64569883102308 -20.977554222199835 1.9725 0 0 0      
28 3 -1.19992203742308 235.7839355010077 -22.76904981056532 1.9725 0 0 0      
29 3 -1.19992203742308 235.61056496019813 -20.80418368139027 0.0 0 0 0      
30 2 2.40015599722463 160.59891096992658 -23.462531973803586 1.9725 0 0 0      
31 3 -1.19992203742308 160.59891096992658 -23.462531973803586 0.0 0 0 0      
32 2 2.40015599722463 164.52864322827668 -23.115790892184457 1.9725 0 0 0      
33 3 -1.19992203742308 162.56377709910157 -23.28916143299402 1.9725 0 0 0      
34 3 -1.19992203742308 164.52864322827668 -23.115790892184457 0.0 0 0 0      
35 2 2.40015599722463 168.45837548662678 -22.769049810565328 1.9725 0 0 0      
36 3 -1.19992203742308 166.4935093574518 -22.942420351374892 1.9725 0 0 0      
37 3 -1.19992203742308 168.45837548662678 -22.769049810565328 0.0 0 0 0      
38 2 2.40015599722463 172.38810774497694 -22.4223087289462 1.9725 0 0 0      
39 3 -1.19992203742308 170.42324161580189 -22.595679269755763 1.9725 0 0 0      
40 3 -1.19992203742308 172.38810774497694 -22.4223087289462 0.0 0 0 0      
41 2 2.40015599722463 176.3178400033271 -22.07556764732707 1.9725 0 0 0      
42 3 -1.19992203742308 174.352973874152 -22.248938188136634 1.9725 0 0 0      
43 3 -1.19992203742308 176.3178400033271 -22.07556764732707 0.0 0 0 0      
44 2 2.40015599722463 180.2475722616772 -21.72882656570794 1.9725 0 0 0      
45 3 -1.19992203742308 178.28270613250208 -21.902197106517505 1.9725 0 0 0      
46 3 -1.19992203742308 180.2475722616772 -21.72882656570794 0.0 0 0 0      
47 1 1.20020797227036 237.4020605485636 -28.838143601929957 3.945 0 0 0      
48 2 2.40015599722463 184.1773045200273 -21.38208548408881 1.9725 0 0 0      
49 3 -1.19992203742308 182.2124383908523 -21.555456024898376 1.9725 0 0 0      
50 3 -1.19992203742308 184.3506750608369 -23.346951613263876 1.9725 0 0 0      
51 3 -1.19992203742308 184.1773045200273 -21.38208548408881 0.0 0 0 0      
52 1 1.20020797227036 186.3155411900119 -23.17358107245431 0.0 0 0 0      
53 2 2.40015599722463 188.10703677837745 -21.035344402469683 1.9725 0 0 0      
54 3 -1.19992203742308 186.1421706492024 -21.208714943279247 1.9725 0 0 0      
55 3 -1.19992203742308 188.28040731918705 -23.000210531644747 1.9725 0 0 0      
56 3 -1.19992203742308 188.10703677837745 -21.035344402469683 0.0 0 0 0      
57 1 1.20020797227036 190.24527344836207 -22.826839990835182 0.0 0 0 0      
58 2 2.40015599722463 192.0367690367276 -20.688603320850554 1.9725 0 0 0      
59 3 -1.19992203742308 190.0719029075525 -20.86197386166012 1.9725 0 0 0      
60 3 -1.19992203742308 192.21013957753712 -22.653469450025618 1.9725 0 0 0      
61 3 -1.19992203742308 192.0367690367276 -20.688603320850554 0.0 0 0 0      
62 1 1.20020797227036 194.17500570671223 -22.480098909216053 0.0 0 0 0      
63 2 2.40015599722463 195.9665012950777 -20.341862239231425 1.9725 0 0 0      
64 3 -1.19992203742308 194.0016351659026 -20.515232780040996 1.9725 0 0 0      
65 3 -1.19992203742308 196.1398718358872 -22.30672836840649 1.9725 0 0 0      
66 3 -1.19992203742308 195.9665012950777 -20.341862239231425 0.0 0 0 0      
67 1 1.20020797227036 198.10473796506236 -22.13335782759693 0.0 0 0 0      
68 2 2.40015599722463 199.8962335534278 -19.995121157612296 1.9725 0 0 0      
69 3 -1.19992203742308 197.9313674242528 -20.168491698421867 1.9725 0 0 0      
70 3 -1.19992203742308 200.06960409423743 -21.95998728678736 1.9725 0 0 0      
71 3 -1.19992203742308 199.8962335534278 -19.995121157612296 0.0 0 0 0      
72 1 1.20020797227036 202.03447022341243 -21.786616745977796 0.0 0 0 0      
73 2 2.40015599722463 203.825965811778 -19.648380075993167 1.9725 0 0 0      
74 3 -1.19992203742308 201.8610996826029 -19.821750616802724 1.9725 0 0 0      
75 3 -1.19992203742308 203.99933635258756 -21.61324620516823 1.9725 0 0 0      
76 3 -1.19992203742308 203.825965811778 -19.648380075993167 0.0 0 0 0      
77 1 1.20020797227036 205.96420248176256 -21.439875664358667 0.0 0 0 0      
78 2 2.40015599722463 207.7556980701281 -19.301638994374038 1.9725 0 0 0      
79 3 -1.19992203742308 205.790831940953 -19.475009535183602 1.9725 0 0 0      
80 3 -1.19992203742308 207.92906861093763 -21.266505123549102 1.9725 0 0 0      
81 3 -1.19992203742308 207.7556980701281 -19.301638994374038 0.0 0 0 0      
82 1 1.20020797227036 209.89393474011277 -21.093134582739545 0.0 0 0 0      
83 2 2.40015599722463 211.68543032847825 -18.95489791275491 1.9725 0 0 0      
84 3 -1.19992203742308 209.7205641993031 -19.12826845356448 1.9725 0 0 0      
85 3 -1.19992203742308 211.85880086928773 -20.919764041929973 1.9725 0 0 0      
86 3 -1.19992203742308 211.68543032847825 -18.95489791275491 0.0 0 0 0      
87 1 1.20020797227036 213.82366699846284 -20.746393501120416 0.0 0 0 0      
88 2 2.40015599722463 215.61516258682832 -18.60815683113578 1.9725 0 0 0      
89 3 -1.19992203742308 213.65029645765327 -18.78152737194535 1.9725 0 0 0      
90 3 -1.19992203742308 215.78853312763795 -20.573022960310844 1.9725 0 0 0      
91 3 -1.19992203742308 215.61516258682832 -18.60815683113578 0.0 0 0 0      
92 1 1.20020797227036 217.7533992568129 -20.39965241950128 0.0 0 0 0      
93 2 2.40015599722463 219.54489484517848 -18.261415749516644 1.9725 0 0 0      
94 3 -1.19992203742308 217.58002871600343 -18.434786290326215 1.9725 0 0 0      
95 3 -1.19992203742308 219.71826538598805 -20.226281878691715 1.9725 0 0 0      
96 3 -1.19992203742308 219.54489484517848 -18.261415749516644 0.0 0 0 0      
97 1 1.20020797227036 221.6831315151631 -20.05291133788215 0.0 0 0 0      
98 2 2.40015599722463 223.47462710352863 -17.914674667897522 1.9725 0 0 0      
99 3 -1.19992203742308 221.50976097435355 -18.088045208707086 1.9725 0 0 0      
100 3 -1.19992203742308 223.64799764433812 -19.879540797072586 1.9725 0 0 0      
101 3 -1.19992203742308 223.47462710352863 -17.914674667897522 0.0 0 0 0      
102 1 1.20020797227036 225.61286377351323 -19.70617025626303 0.0 0 0 0      
103 2 2.40015599722463 227.40435936187876 -17.5679335862784 1.9725 0 0 0      
104 3 -1.19992203742308 225.43949323270363 -17.741304127087965 1.9725 0 0 0      
105 3 -1.19992203742308 227.57772990268825 -19.532799715453457 1.9725 0 0 0      
106 3 -1.19992203742308 227.40435936187876 -17.5679335862784 0.0 0 0 0      
107 1 1.20020797227036 229.54259603186333 -19.3594291746439 0.0 0 0 0      
108 2 2.40015599722463 231.33409162022883 -17.221192504659264 1.9725 0 0 0      
109 3 -1.19992203742308 229.36922549105375 -17.394563045468836 1.9725 0 0 0      
110 3 -1.19992203742308 231.5074621610384 -19.186058633834328 1.9725 0 0 0      
111 3 -1.19992203742308 231.33409162022883 -17.221192504659264 0.0 0 0 0      
112 1 1.20020797227036 233.47232829021343 -19.012688093024764 0.0 0 0 0      
113 2 2.40015599722463 235.263823878579 -16.874451423040135 1.9725 0 0 0      
114 3 -1.19992203742308 233.29895774940397 -17.0478219638497 1.9725 0 0 0      
115 3 -1.19992203742308 235.43719441938856 -18.8393175522152 1.9725 0 0 0      
116 3 -1.19992203742308 235.263823878579 -16.874451423040135 0.0 0 0 0      
117 1 1.20020797227036 237.4020605485636 -18.665947011405635 0.0 0 0 0      
118 3 -1.19992203742308 237.22869000775404 -16.70108088223057 1.9725 0 0 0      
119 3 -1.19992203742308 235.61056496019813 -26.699906931945335 3.945 0 0 0      
120 3 -1.19992203742308 235.43719441938856 -28.664773061120414 5.917499999999999 0 0 0      
121 2 2.40015599722463 117.025115046456 -23.346951613263876 1.9725 0 0 0      
122 3 -1.19992203742308 233.64569883102308 -26.526536391135764 5.917499999999999 0 0 0      
123 3 -1.19992203742308 117.025115046456 -23.346951613263876 0.0 0 0 0      
124 2 2.40015599722463 120.95484730480617 -23.000210531644747 1.9725 0 0 0      
125 3 -1.19992203742308 118.9899811756311 -23.17358107245431 1.9725 0 0 0      
126 3 -1.19992203742308 120.95484730480617 -23.000210531644747 0.0 0 0 0      
127 2 2.40015599722463 124.88457956315632 -22.653469450025618 1.9725 0 0 0      
128 3 -1.19992203742308 122.9197134339812 -22.826839990835182 1.9725 0 0 0      
129 3 -1.19992203742308 124.88457956315632 -22.653469450025618 0.0 0 0 0      
130 2 2.40015599722463 128.8143118215064 -22.30672836840649 1.9725 0 0 0      
131 3 -1.19992203742308 126.8494456923313 -22.480098909216053 1.9725 0 0 0      
132 3 -1.19992203742308 128.8143118215064 -22.30672836840649 0.0 0 0 0      
133 2 2.40015599722463 132.7440440798565 -21.95998728678736 1.9725 0 0 0      
134 3 -1.19992203742308 130.77917795068146 -22.133357827596924 1.9725 0 0 0      
135 3 -1.19992203742308 132.7440440798565 -21.95998728678736 0.0 0 0 0      
136 2 2.40015599722463 235.61056496019813 -26.699906931945335 5.917499999999999 0 0 0      
137 2 2.40015599722463 136.67377633820666 -21.61324620516823 1.9725 0 0 0      
138 3 -1.19992203742308 134.7089102090316 -21.786616745977796 1.9725 0 0 0      
139 1 1.20020797227036 233.47232829021343 -28.491402520310842 3.945 0 0 0      
140 3 -1.19992203742308 136.67377633820666 -21.61324620516823 0.0 0 0 0      
141 1 1.20020797227036 138.81201300819123 -23.40474179353373 0.0 0 0 0      
142 2 2.40015599722463 140.60350859655682 -21.266505123549102 1.9725 0 0 0      
143 3 -1.19992203742308 138.63864246738171 -21.439875664358667 1.9725 0 0 0      
144 3 -1.19992203742308 140.77687913736634 -23.231371252724166 1.9725 0 0 0      
145 3 -1.19992203742308 140.60350859655682 -21.266505123549102 0.0 0 0 0      
146 1 1.20020797227036 142.7417452665414 -23.0580007119146 0.0 0 0 0      
147 2 2.40015599722463 144.53324085490692 -20.919764041929973 1.9725 0 0 0      
148 3 -1.19992203742308 142.5683747257318 -21.093134582739538 1.9725 0 0 0      
149 3 -1.19992203742308 144.70661139571644 -22.884630171105037 1.9725 0 0 0      
150 3 -1.19992203742308 144.53324085490692 -20.919764041929973 0.0 0 0 0      
151 1 1.20020797227036 146.67147752489154 -22.71125963029548 0.0 0 0 0      
152 2 2.40015599722463 148.46297311325702 -20.573022960310844 1.9725 0 0 0      
153 3 -1.19992203742308 146.49810698408197 -20.74639350112041 1.9725 0 0 0      
154 3 -1.19992203742308 148.6363436540666 -22.53788908948591 1.9725 0 0 0      
155 3 -1.19992203742308 148.46297311325702 -20.573022960310844 0.0 0 0 0      
156 1 1.20020797227036 150.60120978324164 -22.364518548676344 0.0 0 0 0      
157 2 2.40015599722463 152.39270537160718 -20.226281878691715 1.9725 0 0 0      
158 3 -1.19992203742308 150.42783924243213 -20.39965241950128 1.9725 0 0 0      
159 3 -1.19992203742308 152.56607591241675 -22.19114800786678 1.9725 0 0 0      
160 3 -1.19992203742308 152.39270537160718 -20.226281878691715 0.0 0 0 0      
161 1 1.20020797227036 154.53094204159174 -22.017777467057215 0.0 0 0 0      
162 2 2.40015599722463 156.32243762995734 -19.879540797072586 1.9725 0 0 0      
163 3 -1.19992203742308 154.35757150078223 -20.05291133788215 1.9725 0 0 0      
164 3 -1.19992203742308 156.49580817076685 -21.84440692624765 1.9725 0 0 0      
165 3 -1.19992203742308 156.32243762995734 -19.879540797072586 0.0 0 0 0      
166 1 1.20020797227036 158.4606742999419 -21.671036385438086 0.0 0 0 0      
167 2 2.40015599722463 160.25216988830744 -19.532799715453457 1.9725 0 0 0      
168 3 -1.19992203742308 158.28730375913233 -19.70617025626302 1.9725 0 0 0      
169 3 -1.19992203742308 160.42554042911695 -21.497665844628514 1.9725 0 0 0      
170 3 -1.19992203742308 160.25216988830744 -19.532799715453457 0.0 0 0 0      
171 1 1.20020797227036 162.39040655829206 -21.324295303818957 0.0 0 0 0      
172 2 2.40015599722463 164.18190214665754 -19.186058633834328 1.9725 0 0 0      
173 3 -1.19992203742308 162.21703601748249 -19.359429174643893 1.9725 0 0 0      
174 3 -1.19992203742308 164.35527268746705 -21.1509247630094 1.9725 0 0 0      
175 3 -1.19992203742308 164.18190214665754 -19.186058633834328 0.0 0 0 0      
176 1 1.20020797227036 166.32013881664216 -20.977554222199828 0.0 0 0 0      
177 2 2.40015599722463 168.1116344050077 -18.8393175522152 1.9725 0 0 0      
178 3 -1.19992203742308 166.14676827583264 -19.012688093024764 1.9725 0 0 0      
179 3 -1.19992203742308 168.28500494581726 -20.80418368139027 1.9725 0 0 0      
180 3 -1.19992203742308 168.1116344050077 -18.8393175522152 0.0 0 0 0      
181 1 1.20020797227036 170.24987107499226 -20.6308131405807 0.0 0 0 0      
182 2 2.40015599722463 172.04136666335785 -18.49257647059607 1.9725 0 0 0      
183 3 -1.19992203742308 170.07650053418274 -18.665947011405635 1.9725 0 0 0      
184 3 -1.19992203742308 172.21473720416736 -20.457442599771134 1.9725 0 0 0      
185 3 -1.19992203742308 172.04136666335785 -18.49257647059607 0.0 0 0 0      
186 1 1.20020797227036 174.1796033333424 -20.28407205896157 0.0 0 0 0      
187 2 2.40015599722463 175.97109892170795 -18.145835388976934 1.9725 0 0 0      
188 3 -1.19992203742308 174.00623279253284 -18.319205929786506 1.9725 0 0 0      
189 3 -1.19992203742308 176.14446946251746 -20.110701518152005 1.9725 0 0 0      
190 3 -1.19992203742308 175.97109892170795 -18.145835388976934 0.0 0 0 0      
191 1 1.20020797227036 178.10933559169257 -19.937330977342434 0.0 0 0 0      
192 2 2.40015599722463 179.90083118005805 -17.799094307357812 1.9725 0 0 0      
193 3 -1.19992203742308 177.935965050883 -17.972464848167377 1.9725 0 0 0      
194 3 -1.19992203742308 180.07420172086756 -19.763960436532876 1.9725 0 0 0      
195 3 -1.19992203742308 179.90083118005805 -17.799094307357812 0.0 0 0 0      
196 1 1.20020797227036 182.03906785004267 -19.59058989572332 0.0 0 0 0      
197 2 2.40015599722463 183.8305634384082 -17.452353225738683 1.9725 0 0 0      
198 3 -1.19992203742308 181.8656973092332 -17.625723766548248 1.9725 0 0 0      
199 3 -1.19992203742308 184.00393397921775 -19.417219354913748 1.9725 0 0 0      
200 3 -1.19992203742308 183.8305634384082 -17.452353225738683 0.0 0 0 0      
201 1 1.20020797227036 185.9688001083928 -19.24384881410419 0.0 0 0 0      
202 2 2.40015599722463 187.7602956967584 -17.105612144119554 1.9725 0 0 0      
203 3 -1.19992203742308 185.79542956758328 -17.27898268492912 1.9725 0 0 0      
204 3 -1.19992203742308 187.93366623756788 -19.07047827329462 1.9725 0 0 0      
205 3 -1.19992203742308 187.7602956967584 -17.105612144119554 0.0 0 0 0      
206 1 1.20020797227036 189.89853236674293 -18.897107732485054 0.0 0 0 0      
207 2 2.40015599722463 191.6900279551085 -16.758871062500425 1.9725 0 0 0      
208 3 -1.19992203742308 189.72516182593336 -16.93224160330999 1.9725 0 0 0      
209 3 -1.19992203742308 191.863398495918 -18.72373719167549 1.9725 0 0 0      
210 3 -1.19992203742308 191.6900279551085 -16.758871062500425 0.0 0 0 0      
211 1 1.20020797227036 193.82826462509308 -18.550366650865932 0.0 0 0 0      
212 2 2.40015599722463 195.61976021345856 -16.412129980881296 1.9725 0 0 0      
213 3 -1.19992203742308 193.6548940842835 -16.585500521690868 1.9725 0 0 0      
214 3 -1.19992203742308 195.79313075426808 -18.376996110056353 1.9725 0 0 0      
215 3 -1.19992203742308 195.61976021345856 -16.412129980881296 0.0 0 0 0      
216 1 1.20020797227036 197.7579968834432 -18.203625569246803 0.0 0 0 0      
217 2 2.40015599722463 199.54949247180872 -16.065388899262167 1.9725 0 0 0      
218 3 -1.19992203742308 197.58462634263367 -16.23875944007174 1.9725 0 0 0      
219 3 -1.19992203742308 199.7228630126183 -18.03025502843724 1.9725 0 0 0      
220 3 -1.19992203742308 199.54949247180872 -16.065388899262167 0.0 0 0 0      
221 1 1.20020797227036 201.68772914179328 -17.856884487627667 0.0 0 0 0      
222 2 2.40015599722463 203.47922473015888 -15.718647817643038 1.9725 0 0 0      
223 3 -1.19992203742308 201.51435860098377 -15.892018358452603 1.9725 0 0 0      
224 3 -1.19992203742308 203.6525952709684 -17.68351394681811 1.9725 0 0 0      
225 3 -1.19992203742308 203.47922473015888 -15.718647817643038 0.0 0 0 0      
226 1 1.20020797227036 205.61746140014344 -17.510143406008538 0.0 0 0 0      
227 2 2.40015599722463 207.40895698850895 -15.37190673602391 1.9725 0 0 0      
228 3 -1.19992203742308 205.44409085933387 -15.545277276833474 1.9725 0 0 0      
229 3 -1.19992203742308 207.5823275293185 -17.336772865198974 1.9725 0 0 0      
230 3 -1.19992203742308 207.40895698850895 -15.37190673602391 0.0 0 0 0      
231 1 1.20020797227036 209.5471936584936 -17.163402324389416 0.0 0 0 0      
232 2 2.40015599722463 211.33868924685908 -15.02516565440478 1.9725 0 0 0      
233 3 -1.19992203742308 209.37382311768403 -15.19853619521436 1.9725 0 0 0      
234 3 -1.19992203742308 211.5120597876686 -16.990031783579845 1.9725 0 0 0      
235 3 -1.19992203742308 211.33868924685908 -15.02516565440478 0.0 0 0 0      
236 1 1.20020797227036 213.4769259168437 -16.816661242770287 0.0 0 0 0      
237 2 2.40015599722463 215.26842150520923 -14.678424572785651 1.9725 0 0 0      
238 3 -1.19992203742308 213.30355537603415 -14.85179511359523 1.9725 0 0 0      
239 3 -1.19992203742308 215.4417920460188 -16.643290701960716 1.9725 0 0 0      
240 3 -1.19992203742308 215.26842150520923 -14.678424572785651 0.0 0 0 0      
241 1 1.20020797227036 217.4066581751938 -16.46992016115116 0.0 0 0 0      
242 2 2.40015599722463 219.1981537635594 -14.331683491166523 1.9725 0 0 0      
243 3 -1.19992203742308 217.23328763438428 -14.505054031976087 1.9725 0 0 0      
244 3 -1.19992203742308 219.3715243043689 -16.296549620341587 1.9725 0 0 0      
245 3 -1.19992203742308 219.1981537635594 -14.331683491166523 0.0 0 0 0      
246 1 1.20020797227036 221.33639043354395 -16.12317907953203 0.0 0 0 0      
247 2 2.40015599722463 223.1278860219095 -13.984942409547394 1.9725 0 0 0      
248 3 -1.19992203742308 221.1630198927344 -14.158312950356958 1.9725 0 0 0      
249 3 -1.19992203742308 223.301256562719 -15.949808538722458 1.9725 0 0 0      
250 3 -1.19992203742308 223.1278860219095 -13.984942409547394 0.0 0 0 0      
251 1 1.20020797227036 225.2661226918941 -15.7764379979129 0.0 0 0 0      
252 2 2.40015599722463 227.0576182802596 -13.638201327928265 1.9725 0 0 0      
253 3 -1.19992203742308 225.0927521510845 -13.811571868737836 1.9725 0 0 0      
254 3 -1.19992203742308 227.2309888210691 -15.603067457103329 1.9725 0 0 0      
255 3 -1.19992203742308 227.0576182802596 -13.638201327928265 0.0 0 0 0      
256 1 1.20020797227036 229.1958549502442 -15.429696916293764 0.0 0 0 0      
257 2 2.40015599722463 230.9873505386097 -13.291460246309136 1.9725 0 0 0      
258 3 -1.19992203742308 229.0224844094347 -13.464830787118707 1.9725 0 0 0      
259 3 -1.19992203742308 231.1607210794193 -15.2563263754842 1.9725 0 0 0      
260 3 -1.19992203742308 230.9873505386097 -13.291460246309136 0.0 0 0 0      
261 1 1.20020797227036 233.1255872085943 -15.082955834674635 0.0 0 0 0      
262 2 2.40015599722463 234.9170827969599 -12.944719164690007 1.9725 0 0 0      
263 3 -1.19992203742308 232.9522166677848 -13.118089705499571 1.9725 0 0 0      
264 3 -1.19992203742308 235.09045333776945 -14.909585293865078 1.9725 0 0 0      
265 3 -1.19992203742308 234.9170827969599 -12.944719164690007 0.0 0 0 0      
266 1 1.20020797227036 237.05531946694447 -14.736214753055506 0.0 0 0 0      
267 3 -1.19992203742308 236.8819489261349 -12.771348623880442 1.9725 0 0 0      
268 3 -1.19992203742308 231.680832701848 -26.353165850326192 3.945 0 0 0      
269 3 -1.19992203742308 231.5074621610384 -28.31803197950127 5.917499999999999 0 0 0      
270 3 -1.19992203742308 229.71596657267293 -26.17979530951665 5.917499999999999 0 0 0      
271 2 2.40015599722463 73.45131912298547 -23.231371252724166 1.9725 0 0 0      
272 3 -1.19992203742308 71.48645299381042 -23.40474179353373 1.9725 0 0 0      
273 3 -1.19992203742308 73.45131912298547 -23.231371252724166 0.0 0 0 0      
274 2 2.40015599722463 77.38105138133562 -22.884630171105037 1.9725 0 0 0      
275 3 -1.19992203742308 75.41618525216052 -23.0580007119146 1.9725 0 0 0      
276 3 -1.19992203742308 77.38105138133562 -22.884630171105037 0.0 0 0 0      
277 2 2.40015599722463 81.31078363968572 -22.53788908948591 1.9725 0 0 0      
278 3 -1.19992203742308 79.34591751051067 -22.71125963029548 1.9725 0 0 0      
279 3 -1.19992203742308 81.31078363968572 -22.53788908948591 0.0 0 0 0      
280 2 2.40015599722463 85.24051589803588 -22.19114800786678 1.9725 0 0 0      
281 3 -1.19992203742308 83.27564976886083 -22.364518548676344 1.9725 0 0 0      
282 3 -1.19992203742308 85.24051589803588 -22.19114800786678 0.0 0 0 0      
283 2 2.40015599722463 89.17024815638598 -21.84440692624765 1.9725 0 0 0      
284 3 -1.19992203742308 87.20538202721093 -22.017777467057215 1.9725 0 0 0      
285 3 -1.19992203742308 89.17024815638598 -21.84440692624765 0.0 0 0 0      
286 2 2.40015599722463 231.680832701848 -26.353165850326192 5.917499999999999 0 0 0      
287 2 2.40015599722463 93.09998041473614 -21.497665844628514 1.9725 0 0 0      
288 3 -1.19992203742308 91.13511428556104 -21.671036385438086 1.9725 0 0 0      
289 3 -1.19992203742308 93.27335095554572 -23.462531973803586 1.9725 0 0 0      
290 3 -1.19992203742308 93.09998041473614 -21.497665844628514 0.0 0 0 0      
291 1 1.20020797227036 95.23821708472076 -23.28916143299402 0.0 0 0 0      
292 2 2.40015599722463 97.02971267308624 -21.1509247630094 1.9725 0 0 0      
293 3 -1.19992203742308 95.0648465439112 -21.324295303818957 1.9725 0 0 0      
294 3 -1.19992203742308 97.2030832138958 -23.115790892184457 1.9725 0 0 0      
295 3 -1.19992203742308 97.02971267308624 -21.1509247630094 0.0 0 0 0      
296 1 1.20020797227036 99.16794934307086 -22.942420351374892 0.0 0 0 0      
297 2 2.40015599722463 100.95944493143634 -20.80418368139027 1.9725 0 0 0      
298 3 -1.19992203742308 98.99457880226134 -20.977554222199828 1.9725 0 0 0      
299 3 -1.19992203742308 101.13281547224597 -22.769049810565328 1.9725 0 0 0      
300 3 -1.19992203742308 100.95944493143634 -20.80418368139027 0.0 0 0 0      
301 1 1.20020797227036 103.09768160142102 -22.595679269755763 0.0 0 0 0      
302 2 2.40015599722463 104.8891771897865 -20.457442599771134 1.9725 0 0 0      
303 3 -1.19992203742308 102.92431106061144 -20.6308131405807 1.9725 0 0 0      
304 3 -1.19992203742308 105.06254773059608 -22.4223087289462 1.9725 0 0 0      
305 3 -1.19992203742308 104.8891771897865 -20.457442599771134 0.0 0 0 0      
306 1 1.20020797227036 107.02741385977112 -22.248938188136634 0.0 0 0 0      
307 2 2.40015599722463 108.81890944813664 -20.110701518152005 1.9725 0 0 0      
308 3 -1.19992203742308 106.85404331896154 -20.28407205896157 1.9725 0 0 0      
309 3 -1.19992203742308 108.99227998894617 -22.07556764732707 1.9725 0 0 0      
310 3 -1.19992203742308 108.81890944813664 -20.110701518152005 0.0 0 0 0      
311 1 1.20020797227036 110.95714611812129 -21.902197106517505 0.0 0 0 0      
312 2 2.40015599722463 112.74864170648677 -19.763960436532876 1.9725 0 0 0      
313 3 -1.19992203742308 110.7837755773117 -19.937330977342434 1.9725 0 0 0      
314 3 -1.19992203742308 112.92201224729632 -21.72882656570794 1.9725 0 0 0      
315 3 -1.19992203742308 112.74864170648677 -19.763960436532876 0.0 0 0 0      
316 1 1.20020797227036 114.88687837647136 -21.555456024898376 0.0 0 0 0      
317 2 2.40015599722463 116.67837396483684 -19.417219354913748 1.9725 0 0 0      
318 3 -1.19992203742308 114.71350783566186 -19.59058989572332 1.9725 0 0 0      
319 3 -1.19992203742308 116.85174450564648 -21.38208548408881 1.9725 0 0 0      
320 3 -1.19992203742308 116.67837396483684 -19.417219354913748 0.0 0 0 0      
321 1 1.20020797227036 118.81661063482152 -21.208714943279247 0.0 0 0 0      
322 2 2.40015599722463 120.608106223187 -19.07047827329462 1.9725 0 0 0      
323 3 -1.19992203742308 118.64324009401196 -19.24384881410419 1.9725 0 0 0      
324 3 -1.19992203742308 120.78147676399658 -21.035344402469683 1.9725 0 0 0      
325 3 -1.19992203742308 120.608106223187 -19.07047827329462 0.0 0 0 0      
326 1 1.20020797227036 122.74634289317164 -20.86197386166012 0.0 0 0 0      
327 2 2.40015599722463 124.53783848153716 -18.72373719167549 1.9725 0 0 0      
328 3 -1.19992203742308 122.57297235236206 -18.897107732485054 1.9725 0 0 0      
329 3 -1.19992203742308 124.71120902234668 -20.688603320850554 1.9725 0 0 0      
330 3 -1.19992203742308 124.53783848153716 -18.72373719167549 0.0 0 0 0      
331 1 1.20020797227036 126.6760751515218 -20.51523278004099 0.0 0 0 0      
332 2 2.40015599722463 128.46757073988726 -18.376996110056353 1.9725 0 0 0      
333 3 -1.19992203742308 126.5027046107122 -18.550366650865925 1.9725 0 0 0      
334 3 -1.19992203742308 128.64094128069684 -20.341862239231425 1.9725 0 0 0      
335 3 -1.19992203742308 128.46757073988726 -18.376996110056353 0.0 0 0 0      
336 1 1.20020797227036 130.6058074098719 -20.16849169842186 0.0 0 0 0      
337 2 2.40015599722463 132.39730299823742 -18.03025502843724 1.9725 0 0 0      
338 3 -1.19992203742308 130.43243686906237 -18.203625569246796 1.9725 0 0 0      
339 3 -1.19992203742308 132.570673539047 -19.995121157612296 1.9725 0 0 0      
340 3 -1.19992203742308 132.39730299823742 -18.03025502843724 0.0 0 0 0      
341 1 1.20020797227036 134.53553966822204 -19.821750616802724 0.0 0 0 0      
342 2 2.40015599722463 136.32703525658752 -17.68351394681811 1.9725 0 0 0      
343 3 -1.19992203742308 134.36216912741247 -17.856884487627667 1.9725 0 0 0      
344 3 -1.19992203742308 136.5004057973971 -19.648380075993167 1.9725 0 0 0      
345 3 -1.19992203742308 136.32703525658752 -17.68351394681811 0.0 0 0 0      
346 1 1.20020797227036 138.46527192657214 -19.475009535183602 0.0 0 0 0      
347 2 2.40015599722463 140.25676751493768 -17.336772865198974 1.9725 0 0 0      
348 3 -1.19992203742308 138.29190138576257 -17.510143406008538 1.9725 0 0 0      
349 3 -1.19992203742308 140.4301380557472 -19.301638994374038 1.9725 0 0 0      
350 3 -1.19992203742308 140.25676751493768 -17.336772865198974 0.0 0 0 0      
351 1 1.20020797227036 142.3950041849223 -19.12826845356448 0.0 0 0 0      
352 2 2.40015599722463 144.18649977328778 -16.990031783579845 1.9725 0 0 0      
353 3 -1.19992203742308 142.22163364411267 -17.16340232438941 1.9725 0 0 0      
354 3 -1.19992203742308 144.35987031409735 -18.95489791275491 1.9725 0 0 0      
355 3 -1.19992203742308 144.18649977328778 -16.990031783579845 0.0 0 0 0      
356 1 1.20020797227036 146.3247364432724 -18.781527371945344 0.0 0 0 0      
357 2 2.40015599722463 148.11623203163788 -16.643290701960716 1.9725 0 0 0      
358 3 -1.19992203742308 146.15136590246283 -16.81666124277028 1.9725 0 0 0      
359 3 -1.19992203742308 148.2896025724475 -18.60815683113578 1.9725 0 0 0      
360 3 -1.19992203742308 148.11623203163788 -16.643290701960716 0.0 0 0 0      
361 1 1.20020797227036 150.25446870162256 -18.434786290326215 0.0 0 0 0      
362 2 2.40015599722463 152.04596428998804 -16.296549620341587 1.9725 0 0 0      
363 3 -1.19992203742308 150.081098160813 -16.46992016115116 1.9725 0 0 0      
364 3 -1.19992203742308 152.2193348307976 -18.261415749516644 1.9725 0 0 0      
365 3 -1.19992203742308 152.04596428998804 -16.296549620341587 0.0 0 0 0      
366 1 1.20020797227036 154.18420095997266 -18.088045208707086 0.0 0 0 0      
367 2 2.40015599722463 155.9756965483382 -15.949808538722458 1.9725 0 0 0      
368 3 -1.19992203742308 154.01083041916309 -16.12317907953203 1.9725 0 0 0      
369 3 -1.19992203742308 156.1490670891477 -17.914674667897522 1.9725 0 0 0      
370 3 -1.19992203742308 155.9756965483382 -15.949808538722458 0.0 0 0 0      
371 1 1.20020797227036 158.1139332183228 -17.741304127087957 0.0 0 0 0      