LAMMPS data file via write_data, version 19 Nov 2024, timestep = 0, units = metal

28958 atoms
3 atom types

0 237.520453066678 xlo xhi
-142.512271840007 47.5040906133356 ylo yhi
0 7.89 zlo zhi

Masses

1 87.62
2 47.867
3 15.999

Atoms # charge

1 2 2.4 204.63502833555594 -142.3372140046524 1.9725000000000001 0 0 0
2 3 -1.2 235.7839355010077 46.52109511723312 5.917499999999999 0 0 0
3 3 -1.2 204.63502833555594 -142.3372140046524 0 0 0 0
4 2 2.4 208.56476059390604 -141.99047292303328 1.9725000000000001 0 0 0
5 3 -1.2 206.599894464731 -142.16384346384285 1.9725000000000001 0 0 0
6 3 -1.2 208.56476059390604 -141.99047292303328 0 0 0 0
7 2 2.4 212.4944928522562 -141.64373184141414 1.9725000000000001 0 0 0
8 3 -1.2 210.52962672308115 -141.8171023822237 1.9725000000000001 0 0 0
9 3 -1.2 212.4944928522562 -141.64373184141414 0 0 0 0
10 2 2.4 216.42422511060636 -141.29699075979502 1.9725000000000001 0 0 0
11 3 -1.2 214.45935898143125 -141.47036130060457 1.9725000000000001 0 0 0
12 3 -1.2 216.42422511060636 -141.29699075979502 0 0 0 0
13 2 2.4 220.35395736895646 -140.95024967817588 1.9725000000000001 0 0 0
14 3 -1.2 218.38909123978135 -141.12362021898545 1.9725000000000001 0 0 0
15 3 -1.2 220.35395736895646 -140.95024967817588 0 0 0 0
16 2 2.4 224.28368962730656 -140.60350859655676 1.9725000000000001 0 0 0
17 3 -1.2 222.3188234981315 -140.77687913736634 1.9725000000000001 0 0 0
18 3 -1.2 224.28368962730656 -140.60350859655676 0 0 0 0
19 1 1.2 226.42192629729118 -142.3950041849223 0 0 0 0
20 2 2.4 228.21342188565671 -140.25676751493762 1.9725000000000001 0 0 0
21 3 -1.2 226.24855575648166 -140.4301380557472 1.9725000000000001 0 0 0
22 3 -1.2 228.3867924264663 -142.22163364411273 1.9725000000000001 0 0 0
23 3 -1.2 228.21342188565671 -140.25676751493762 0 0 0 0
24 1 1.2 230.35165855564134 -142.04826310330316 0 0 0 0
25 2 2.4 232.14315414400687 -139.9100264333185 1.9725000000000001 0 0 0
26 3 -1.2 230.17828801483176 -140.08339697412805 1.9725000000000001 0 0 0
27 3 -1.2 232.3165246848164 -141.8748925624936 1.9725000000000001 0 0 0
28 3 -1.2 232.14315414400687 -139.9100264333185 0 0 0 0
29 1 1.2 234.28139081399144 -141.70152202168404 0 0 0 0
30 2 2.4 236.07288640235697 -139.56328535169936 1.9725000000000001 0 0 0
31 3 -1.2 234.10802027318186 -139.73665589250894 1.9725000000000001 0 0 0
32 3 -1.2 236.2462569431665 -141.52815148087447 1.9725000000000001 0 0 0
33 3 -1.2 236.07288640235697 -139.56328535169936 0 0 0 0
34 2 2.4 161.06123241208536 -142.22163364411273 1.9725000000000001 0 0 0
35 3 -1.2 159.09636628291037 -142.3950041849223 1.9725000000000001 0 0 0
36 3 -1.2 161.06123241208536 -142.22163364411273 0 0 0 0
37 2 2.4 164.99096467043552 -141.87489256249359 1.9725000000000001 0 0 0
38 3 -1.2 163.02609854126047 -142.04826310330316 1.9725000000000001 0 0 0
39 3 -1.2 164.99096467043552 -141.87489256249359 0 0 0 0
40 2 2.4 168.92069692878567 -141.52815148087447 1.9725000000000001 0 0 0
41 3 -1.2 166.95583079961057 -141.70152202168404 1.9725000000000001 0 0 0
42 3 -1.2 168.92069692878567 -141.52815148087447 0 0 0 0
43 2 2.4 172.85042918713577 -141.18141039925533 1.9725000000000001 0 0 0
44 3 -1.2 170.88556305796067 -141.3547809400649 1.9725000000000001 0 0 0
45 3 -1.2 172.85042918713577 -141.18141039925533 0 0 0 0
46 2 2.4 176.78016144548587 -140.8346693176362 1.9725000000000001 0 0 0
47 3 -1.2 174.81529531631088 -141.00803985844578 1.9725000000000001 0 0 0
48 3 -1.2 176.78016144548587 -140.8346693176362 0 0 0 0
49 2 2.4 180.70989370383603 -140.48792823601707 1.9725000000000001 0 0 0
50 3 -1.2 178.74502757466098 -140.66129877682664 1.9725000000000001 0 0 0
51 1 1.2 233.8190693718326 46.69446565804269 3.9450000000000003 0 0 0
52 3 -1.2 180.70989370383603 -140.48792823601707 0 0 0 0
53 1 1.2 182.84813037382065 -142.27942382438258 0 0 0 0
54 2 2.4 184.6396259621862 -140.14118715439795 1.9725000000000001 0 0 0
55 3 -1.2 182.67475983301108 -140.31455769520753 1.9725000000000001 0 0 0
56 3 -1.2 184.8129965029957 -142.106053283573 1.9725000000000001 0 0 0
57 3 -1.2 184.6396259621862 -140.14118715439795 0 0 0 0
58 1 1.2 186.7778626321708 -141.93268274276343 0 0 0 0
59 2 2.4 188.5693582205363 -139.7944460727788 1.9725000000000001 0 0 0
60 3 -1.2 186.60449209136118 -139.96781661358838 1.9725000000000001 0 0 0
61 3 -1.2 188.7427287613458 -141.75931220195386 1.9725000000000001 0 0 0
62 3 -1.2 188.5693582205363 -139.7944460727788 0 0 0 0
63 1 1.2 190.7075948905209 -141.58594166114432 0 0 0 0
64 2 2.4 192.4990904788864 -139.4477049911597 1.9725000000000001 0 0 0
65 3 -1.2 190.5342243497114 -139.62107553196927 1.9725000000000001 0 0 0
66 3 -1.2 192.67246101969602 -141.41257112033475 1.9725000000000001 0 0 0
67 3 -1.2 192.4990904788864 -139.4477049911597 0 0 0 0
68 1 1.2 194.637327148871 -141.23920057952517 0 0 0 0
69 2 2.4 196.42882273723654 -139.10096390954055 1.9725000000000001 0 0 0
70 3 -1.2 194.4639566080615 -139.27433445035012 1.9725000000000001 0 0 0
71 3 -1.2 196.60219327804612 -141.0658300387156 1.9725000000000001 0 0 0
72 3 -1.2 196.42882273723654 -139.10096390954055 0 0 0 0
73 1 1.2 198.56705940722117 -140.89245949790603 0 0 0 0
74 2 2.4 200.3585549955867 -138.75422282792144 1.9725000000000001 0 0 0
75 3 -1.2 198.3936888664116 -138.92759336873098 1.9725000000000001 0 0 0
76 3 -1.2 200.53192553639622 -140.7190889570965 1.9725000000000001 0 0 0
77 3 -1.2 200.3585549955867 -138.75422282792144 0 0 0 0
78 1 1.2 202.49679166557132 -140.54571841628692 0 0 0 0
79 2 2.4 204.2882872539368 -138.4074817463023 1.9725000000000001 0 0 0
80 3 -1.2 202.3234211247617 -138.58085228711187 1.9725000000000001 0 0 0
81 3 -1.2 204.46165779474632 -140.37234787547735 1.9725000000000001 0 0 0
82 3 -1.2 204.2882872539368 -138.4074817463023 0 0 0 0
83 1 1.2 206.42652392392142 -140.1989773346678 0 0 0 0
84 2 2.4 208.2180195122869 -138.06074066468318 1.9725000000000001 0 0 0
85 3 -1.2 206.25315338311185 -138.23411120549275 1.9725000000000001 0 0 0
86 3 -1.2 208.39139005309653 -140.02560679385823 1.9725000000000001 0 0 0
87 3 -1.2 208.2180195122869 -138.06074066468318 0 0 0 0
88 1 1.2 210.35625618227152 -139.85223625304866 0 0 0 0
89 2 2.4 212.14775177063706 -137.71399958306404 1.9725000000000001 0 0 0
90 3 -1.2 210.182885641462 -137.8873701238736 1.9725000000000001 0 0 0
91 3 -1.2 212.32112231144663 -139.6788657122391 1.9725000000000001 0 0 0
92 3 -1.2 212.14775177063706 -137.71399958306404 0 0 0 0
93 1 1.2 214.28598844062168 -139.50549517142952 0 0 0 0
94 2 2.4 216.07748402898721 -137.36725850144492 1.9725000000000001 0 0 0
95 3 -1.2 214.1126178998121 -137.54062904225447 1.9725000000000001 0 0 0
96 3 -1.2 216.25085456979673 -139.33212463061997 1.9725000000000001 0 0 0
97 3 -1.2 216.07748402898721 -137.36725850144492 0 0 0 0
98 1 1.2 218.21572069897184 -139.1587540898104 0 0 0 0
99 2 2.4 220.00721628733731 -137.02051741982578 1.9725000000000001 0 0 0
100 3 -1.2 218.0423501581622 -137.19388796063535 1.9725000000000001 0 0 0
101 3 -1.2 220.18058682814683 -138.98538354900083 1.9725000000000001 0 0 0
102 3 -1.2 220.00721628733731 -137.02051741982578 0 0 0 0
103 1 1.2 222.14545295732194 -138.8120130081913 0 0 0 0
104 2 2.4 223.93694854568741 -136.67377633820666 1.9725000000000001 0 0 0
105 3 -1.2 221.97208241651236 -136.84714687901624 1.9725000000000001 0 0 0
106 3 -1.2 224.11031908649704 -138.63864246738171 1.9725000000000001 0 0 0
107 3 -1.2 223.93694854568741 -136.67377633820666 0 0 0 0
108 1 1.2 226.07518521567204 -138.46527192657214 0 0 0 0
109 2 2.4 227.86668080403757 -136.32703525658752 1.9725000000000001 0 0 0
110 3 -1.2 225.90181467486252 -136.5004057973971 1.9725000000000001 0 0 0
111 3 -1.2 228.04005134484714 -138.29190138576257 1.9725000000000001 0 0 0
112 3 -1.2 227.86668080403757 -136.32703525658752 0 0 0 0
113 1 1.2 230.0049174740222 -138.118530844953 0 0 0 0
114 2 2.4 231.79641306238773 -135.9802941749684 1.9725000000000001 0 0 0
115 3 -1.2 229.83154693321262 -136.15366471577795 1.9725000000000001 0 0 0
116 3 -1.2 231.96978360319724 -137.94516030414346 1.9725000000000001 0 0 0
117 3 -1.2 231.79641306238773 -135.9802941749684 0 0 0 0
118 1 1.2 233.93464973237235 -137.77178976333389 0 0 0 0
119 2 2.4 235.72614532073783 -135.63355309334926 1.9725000000000001 0 0 0
120 3 -1.2 233.76127919156272 -135.80692363415884 1.9725000000000001 0 0 0
121 3 -1.2 235.89951586154734 -137.5984192225243 1.9725000000000001 0 0 0
122 3 -1.2 235.72614532073783 -135.63355309334926 0 0 0 0
123 3 -1.2 231.8542032426575 46.86783619885226 5.917499999999999 0 0 0
124 1 1.2 229.8893371134825 47.04120673966182 3.9450000000000003 0 0 0
125 2 2.4 117.48743648861483 -142.106053283573 1.9725000000000001 0 0 0
126 3 -1.2 115.52257035943978 -142.27942382438258 1.9725000000000001 0 0 0
127 3 -1.2 117.48743648861483 -142.106053283573 0 0 0 0
128 2 2.4 121.41716874696499 -141.7593122019539 1.9725000000000001 0 0 0
129 3 -1.2 119.45230261778988 -141.93268274276346 1.9725000000000001 0 0 0
130 3 -1.2 121.41716874696499 -141.7593122019539 0 0 0 0
131 2 2.4 125.34690100531509 -141.41257112033475 1.9725000000000001 0 0 0
132 3 -1.2 123.38203487614004 -141.58594166114432 1.9725000000000001 0 0 0
133 3 -1.2 125.34690100531509 -141.41257112033475 0 0 0 0
134 2 2.4 129.27663326366525 -141.06583003871563 1.9725000000000001 0 0 0
135 3 -1.2 127.3117671344902 -141.23920057952517 1.9725000000000001 0 0 0
136 3 -1.2 129.27663326366525 -141.06583003871563 0 0 0 0
137 2 2.4 133.2063655220154 -140.7190889570965 1.9725000000000001 0 0 0
138 3 -1.2 131.2414993928403 -140.89245949790606 1.9725000000000001 0 0 0
139 3 -1.2 133.2063655220154 -140.7190889570965 0 0 0 0
140 3 -1.2 227.9244709843074 47.21457728047139 5.917499999999999 0 0 0
141 2 2.4 137.1360977803655 -140.37234787547737 1.9725000000000001 0 0 0
142 3 -1.2 135.1712316511904 -140.54571841628695 1.9725000000000001 0 0 0
143 3 -1.2 137.30946832117502 -142.33721400465242 1.9725000000000001 0 0 0
144 3 -1.2 137.1360977803655 -140.37234787547737 0 0 0 0
145 1 1.2 139.27433445035012 -142.16384346384285 0 0 0 0
146 2 2.4 141.0658300387156 -140.02560679385823 1.9725000000000001 0 0 0
147 3 -1.2 139.10096390954055 -140.1989773346678 1.9725000000000001 0 0 0
148 3 -1.2 141.23920057952523 -141.99047292303328 1.9725000000000001 0 0 0
149 3 -1.2 141.0658300387156 -140.02560679385823 0 0 0 0
150 1 1.2 143.20406670870022 -141.8171023822237 0 0 0 0
151 2 2.4 144.99556229706576 -139.67886571223912 1.9725000000000001 0 0 0
152 3 -1.2 143.0306961678907 -139.85223625304866 1.9725000000000001 0 0 0
153 3 -1.2 145.16893283787533 -141.64373184141417 1.9725000000000001 0 0 0
154 3 -1.2 144.99556229706576 -139.67886571223912 0 0 0 0
155 1 1.2 147.13379896705032 -141.4703613006046 0 0 0 0
156 2 2.4 148.92529455541592 -139.33212463061997 1.9725000000000001 0 0 0
157 3 -1.2 146.9604284262408 -139.50549517142954 1.9725000000000001 0 0 0
158 3 -1.2 149.09866509622543 -141.29699075979502 1.9725000000000001 0 0 0
159 3 -1.2 148.92529455541592 -139.33212463061997 0 0 0 0
160 1 1.2 151.06353122540048 -141.12362021898548 0 0 0 0
161 2 2.4 152.85502681376602 -138.98538354900086 1.9725000000000001 0 0 0
162 3 -1.2 150.8901606845909 -139.15875408981043 1.9725000000000001 0 0 0
163 3 -1.2 153.02839735457553 -140.9502496781759 1.9725000000000001 0 0 0
164 3 -1.2 152.85502681376602 -138.98538354900086 0 0 0 0
165 1 1.2 154.99326348375064 -140.77687913736634 0 0 0 0
166 2 2.4 156.78475907211612 -138.63864246738171 1.9725000000000001 0 0 0
167 3 -1.2 154.81989294294107 -138.8120130081913 1.9725000000000001 0 0 0
168 3 -1.2 156.9581296129257 -140.60350859655676 1.9725000000000001 0 0 0
169 3 -1.2 156.78475907211612 -138.63864246738171 0 0 0 0
170 1 1.2 158.92299574210074 -140.4301380557472 0 0 0 0
171 2 2.4 160.71449133046627 -138.2919013857626 1.9725000000000001 0 0 0
172 3 -1.2 158.74962520129122 -138.46527192657214 1.9725000000000001 0 0 0
173 3 -1.2 160.88786187127585 -140.25676751493765 1.9725000000000001 0 0 0
174 3 -1.2 160.71449133046627 -138.2919013857626 0 0 0 0
175 1 1.2 162.85272800045084 -140.08339697412808 0 0 0 0
176 2 2.4 164.64422358881643 -137.94516030414346 1.9725000000000001 0 0 0
177 3 -1.2 162.67935745964132 -138.11853084495303 1.9725000000000001 0 0 0
178 3 -1.2 164.81759412962595 -139.9100264333185 1.9725000000000001 0 0 0
179 3 -1.2 164.64422358881643 -137.94516030414346 0 0 0 0
180 1 1.2 166.782460258801 -139.73665589250896 0 0 0 0
181 2 2.4 168.57395584716653 -137.59841922252434 1.9725000000000001 0 0 0
182 3 -1.2 166.60908971799142 -137.7717897633339 1.9725000000000001 0 0 0
183 3 -1.2 168.74732638797605 -139.5632853516994 1.9725000000000001 0 0 0
184 3 -1.2 168.57395584716653 -137.59841922252434 0 0 0 0
185 1 1.2 170.71219251715115 -139.38991481088982 0 0 0 0
186 2 2.4 172.50368810551663 -137.2516781409052 1.9725000000000001 0 0 0
187 3 -1.2 170.53882197634158 -137.42504868171477 1.9725000000000001 0 0 0
188 3 -1.2 172.67705864632615 -139.21654427008025 1.9725000000000001 0 0 0
189 3 -1.2 172.50368810551663 -137.2516781409052 0 0 0 0
190 1 1.2 174.64192477550125 -139.04317372927068 0 0 0 0
191 2 2.4 176.4334203638668 -136.90493705928608 1.9725000000000001 0 0 0
192 3 -1.2 174.46855423469174 -137.07830760009563 1.9725000000000001 0 0 0
193 3 -1.2 176.60679090467636 -138.86980318846113 1.9725000000000001 0 0 0
194 3 -1.2 176.4334203638668 -136.90493705928608 0 0 0 0
195 1 1.2 178.57165703385135 -138.69643264765156 0 0 0 0
196 2 2.4 180.36315262221694 -136.55819597766694 1.9725000000000001 0 0 0
197 3 -1.2 178.39828649304184 -136.7315665184765 1.9725000000000001 0 0 0
198 3 -1.2 180.53652316302646 -138.523062106842 1.9725000000000001 0 0 0
199 3 -1.2 180.36315262221694 -136.55819597766694 0 0 0 0
200 1 1.2 182.5013892922015 -138.34969156603245 0 0 0 0
201 2 2.4 184.29288488056704 -136.21145489604783 1.9725000000000001 0 0 0
202 3 -1.2 182.32801875139194 -136.3848254368574 1.9725000000000001 0 0 0
203 3 -1.2 184.46625542137656 -138.17632102522288 1.9725000000000001 0 0 0
204 3 -1.2 184.29288488056704 -136.21145489604783 0 0 0 0
205 1 1.2 186.43112155055167 -138.0029504844133 0 0 0 0
206 2 2.4 188.22261713891714 -135.86471381442868 1.9725000000000001 0 0 0
207 3 -1.2 186.2577510097421 -136.03808435523825 1.9725000000000001 0 0 0
208 3 -1.2 188.39598767972666 -137.82957994360373 1.9725000000000001 0 0 0
209 3 -1.2 188.22261713891714 -135.86471381442868 0 0 0 0
210 1 1.2 190.36085380890177 -137.65620940279416 0 0 0 0
211 2 2.4 192.1523493972673 -135.51797273280957 1.9725000000000001 0 0 0
212 3 -1.2 190.18748326809225 -135.6913432736191 1.9725000000000001 0 0 0
213 3 -1.2 192.32571993807687 -137.48283886198462 1.9725000000000001 0 0 0
214 3 -1.2 192.1523493972673 -135.51797273280957 0 0 0 0
215 1 1.2 194.29058606725187 -137.30946832117505 0 0 0 0
216 2 2.4 196.08208165561746 -135.17123165119042 1.9725000000000001 0 0 0
217 3 -1.2 194.11721552644235 -135.344602192 1.9725000000000001 0 0 0
218 3 -1.2 196.25545219642697 -137.13609778036547 1.9725000000000001 0 0 0
219 3 -1.2 196.08208165561746 -135.17123165119042 0 0 0 0
220 1 1.2 198.22031832560202 -136.96272723955593 0 0 0 0
221 2 2.4 200.01181391396756 -134.8244905695713 1.9725000000000001 0 0 0
222 3 -1.2 198.04694778479245 -134.99786111038088 1.9725000000000001 0 0 0
223 3 -1.2 200.18518445477707 -136.78935669874636 1.9725000000000001 0 0 0
224 3 -1.2 200.01181391396756 -134.8244905695713 0 0 0 0
225 1 1.2 202.15005058395218 -136.6159861579368 0 0 0 0
226 2 2.4 203.94154617231766 -134.47774948795217 1.9725000000000001 0 0 0
227 3 -1.2 201.9766800431426 -134.65112002876174 1.9725000000000001 0 0 0
228 3 -1.2 204.11491671312717 -136.44261561712722 1.9725000000000001 0 0 0
229 3 -1.2 203.94154617231766 -134.47774948795217 0 0 0 0
230 1 1.2 206.07978284230228 -136.26924507631767 0 0 0 0
231 2 2.4 207.87127843066781 -134.13100840633305 1.9725000000000001 0 0 0
232 3 -1.2 205.90641230149276 -134.30437894714262 1.9725000000000001 0 0 0
233 3 -1.2 208.0446489714774 -136.0958745355081 1.9725000000000001 0 0 0
234 3 -1.2 207.87127843066781 -134.13100840633305 0 0 0 0
235 1 1.2 210.00951510065238 -135.92250399469853 0 0 0 0
236 2 2.4 211.80101068901797 -133.7842673247139 1.9725000000000001 0 0 0
237 3 -1.2 209.83614455984286 -133.95763786552348 1.9725000000000001 0 0 0
238 3 -1.2 211.9743812298275 -135.74913345388896 1.9725000000000001 0 0 0
239 3 -1.2 211.80101068901797 -133.7842673247139 0 0 0 0
240 1 1.2 213.93924735900254 -135.57576291307942 0 0 0 0
241 2 2.4 215.73074294736807 -133.4375262430948 1.9725000000000001 0 0 0
242 3 -1.2 213.76587681819296 -133.61089678390437 1.9725000000000001 0 0 0
243 3 -1.2 215.9041134881776 -135.40239237226984 1.9725000000000001 0 0 0
244 3 -1.2 215.73074294736807 -133.4375262430948 0 0 0 0
245 1 1.2 217.8689796173527 -135.22902183146027 0 0 0 0
246 2 2.4 219.66047520571817 -133.09078516147565 1.9725000000000001 0 0 0
247 3 -1.2 217.69560907654312 -133.26415570228522 1.9725000000000001 0 0 0
248 3 -1.2 219.8338457465277 -135.0556512906507 1.9725000000000001 0 0 0
249 3 -1.2 219.66047520571817 -133.09078516147565 0 0 0 0
250 1 1.2 221.7987118757028 -134.88228074984116 0 0 0 0
251 2 2.4 223.59020746406833 -132.74404407985654 1.9725000000000001 0 0 0
252 3 -1.2 221.62534133489328 -132.9174146206661 1.9725000000000001 0 0 0
253 3 -1.2 223.7635780048779 -134.7089102090316 1.9725000000000001 0 0 0
254 3 -1.2 223.59020746406833 -132.74404407985654 0 0 0 0
255 1 1.2 225.7284441340529 -134.53553966822201 0 0 0 0
256 2 2.4 227.51993972241848 -132.3973029982374 1.9725000000000001 0 0 0
257 3 -1.2 225.55507359324338 -132.57067353904696 1.9725000000000001 0 0 0
258 3 -1.2 227.693310263228 -134.36216912741244 1.9725000000000001 0 0 0
259 3 -1.2 227.51993972241848 -132.3973029982374 0 0 0 0
260 1 1.2 229.65817639240305 -134.1887985866029 0 0 0 0
261 2 2.4 231.44967198076858 -132.05056191661828 1.9725000000000001 0 0 0
262 3 -1.2 229.48480585159348 -132.22393245742785 1.9725000000000001 0 0 0
263 3 -1.2 231.6230425215781 -134.01542804579333 1.9725000000000001 0 0 0
264 3 -1.2 231.44967198076858 -132.05056191661828 0 0 0 0
265 1 1.2 233.5879086507532 -133.84205750498376 0 0 0 0
266 2 2.4 235.37940423911868 -131.70382083499914 1.9725000000000001 0 0 0
267 3 -1.2 233.41453810994363 -131.8771913758087 1.9725000000000001 0 0 0
268 3 -1.2 235.5527747799282 -133.66868696417419 1.9725000000000001 0 0 0
269 3 -1.2 235.37940423911868 -131.70382083499914 0 0 0 0
270 1 1.2 237.5176409091033 -133.49531642336464 0 0 0 0
271 3 -1.2 237.3442703682938 -131.5304502941896 1.9725000000000001 0 0 0
272 2 2.4 69.9839083067942 -142.33721400465242 1.9725000000000001 0 0 0
273 1 1.2 225.95960485513234 47.387947821280946 3.9450000000000003 0 0 0
274 3 -1.2 69.9839083067942 -142.33721400465242 0 0 0 0
275 2 2.4 73.9136405651443 -141.9904729230333 1.9725000000000001 0 0 0
276 3 -1.2 71.94877443596926 -142.16384346384288 1.9725000000000001 0 0 0
277 3 -1.2 73.9136405651443 -141.9904729230333 0 0 0 0
278 2 2.4 77.84337282349446 -141.64373184141417 1.9725000000000001 0 0 0
279 3 -1.2 75.87850669431941 -141.81710238222374 1.9725000000000001 0 0 0
280 3 -1.2 77.84337282349446 -141.64373184141417 0 0 0 0
281 2 2.4 81.77310508184456 -141.29699075979505 1.9725000000000001 0 0 0
282 3 -1.2 79.80823895266951 -141.47036130060462 1.9725000000000001 0 0 0
283 3 -1.2 81.77310508184456 -141.29699075979505 0 0 0 0
284 2 2.4 85.70283734019472 -140.9502496781759 1.9725000000000001 0 0 0
285 3 -1.2 83.73797121101961 -141.12362021898548 1.9725000000000001 0 0 0
286 3 -1.2 85.70283734019472 -140.9502496781759 0 0 0 0
287 2 2.4 89.63256959854482 -140.6035085965568 1.9725000000000001 0 0 0
288 3 -1.2 87.66770346936977 -140.77687913736636 1.9725000000000001 0 0 0
289 3 -1.2 89.63256959854482 -140.6035085965568 0 0 0 0
290 1 1.2 91.77080626852944 -142.39500418492227 0 0 0 0
291 2 2.4 93.56230185689498 -140.25676751493765 1.9725000000000001 0 0 0
292 3 -1.2 91.59743572771993 -140.43013805574722 1.9725000000000001 0 0 0
293 3 -1.2 93.73567239770455 -142.2216336441127 1.9725000000000001 0 0 0
294 3 -1.2 93.56230185689498 -140.25676751493765 0 0 0 0
295 1 1.2 95.7005385268796 -142.04826310330316 0 0 0 0
296 2 2.4 97.49203411524508 -139.91002643331854 1.9725000000000001 0 0 0
297 3 -1.2 95.52716798607003 -140.0833969741281 1.9725000000000001 0 0 0
298 3 -1.2 97.66540465605465 -141.87489256249359 1.9725000000000001 0 0 0
299 3 -1.2 97.49203411524508 -139.91002643331854 0 0 0 0
300 1 1.2 99.6302707852297 -141.701522021684 0 0 0 0
301 2 2.4 101.42176637359523 -139.5632853516994 1.9725000000000001 0 0 0
302 3 -1.2 99.45690024442013 -139.73665589250896 1.9725000000000001 0 0 0
303 3 -1.2 101.5951369144048 -141.52815148087444 1.9725000000000001 0 0 0
304 3 -1.2 101.42176637359523 -139.5632853516994 0 0 0 0
305 1 1.2 103.56000304357985 -141.3547809400649 0 0 0 0
306 2 2.4 105.35149863194533 -139.21654427008028 1.9725000000000001 0 0 0
307 3 -1.2 103.38663250277028 -139.38991481088985 1.9725000000000001 0 0 0
308 3 -1.2 105.5248691727549 -141.18141039925533 1.9725000000000001 0 0 0
309 3 -1.2 105.35149863194533 -139.21654427008028 0 0 0 0
310 1 1.2 107.48973530192995 -141.00803985844576 0 0 0 0
311 2 2.4 109.28123089029543 -138.86980318846113 1.9725000000000001 0 0 0
312 3 -1.2 107.31636476112044 -139.0431737292707 1.9725000000000001 0 0 0
313 3 -1.2 109.45460143110506 -140.83466931763618 1.9725000000000001 0 0 0
314 3 -1.2 109.28123089029543 -138.86980318846113 0 0 0 0
315 1 1.2 111.41946756028011 -140.66129877682664 0 0 0 0
316 2 2.4 113.21096314864559 -138.52306210684202 1.9725000000000001 0 0 0
317 3 -1.2 111.24609701947054 -138.6964326476516 1.9725000000000001 0 0 0
318 3 -1.2 113.38433368945516 -140.48792823601707 1.9725000000000001 0 0 0
319 3 -1.2 113.21096314864559 -138.52306210684202 0 0 0 0
320 1 1.2 115.34919981863021 -140.3145576952075 0 0 0 0
321 2 2.4 117.14069540699575 -138.17632102522288 1.9725000000000001 0 0 0
322 3 -1.2 115.17582927782064 -138.34969156603245 1.9725000000000001 0 0 0
323 3 -1.2 117.31406594780526 -140.14118715439793 1.9725000000000001 0 0 0
324 3 -1.2 117.14069540699575 -138.17632102522288 0 0 0 0
325 1 1.2 119.27893207698037 -139.96781661358835 0 0 0 0
326 2 2.4 121.07042766534585 -137.82957994360376 1.9725000000000001 0 0 0
327 3 -1.2 119.1055615361708 -138.0029504844133 1.9725000000000001 0 0 0
328 3 -1.2 121.24379820615542 -139.7944460727788 1.9725000000000001 0 0 0
329 3 -1.2 121.07042766534585 -137.82957994360376 0 0 0 0
330 1 1.2 123.20866433533047 -139.62107553196924 0 0 0 0
331 2 2.4 125.00015992369595 -137.48283886198462 1.9725000000000001 0 0 0
332 3 -1.2 123.03529379452095 -137.6562094027942 1.9725000000000001 0 0 0
333 3 -1.2 125.17353046450557 -139.44770499115967 1.9725000000000001 0 0 0
334 3 -1.2 125.00015992369595 -137.48283886198462 0 0 0 0
335 1 1.2 127.13839659368062 -139.27433445035012 0 0 0 0
336 2 2.4 128.9298921820461 -137.1360977803655 1.9725000000000001 0 0 0
337 3 -1.2 126.96502605287105 -137.30946832117507 1.9725000000000001 0 0 0
338 3 -1.2 129.10326272285567 -139.10096390954055 1.9725000000000001 0 0 0
339 3 -1.2 128.9298921820461 -137.1360977803655 0 0 0 0
340 1 1.2 131.06812885203072 -138.92759336873098 0 0 0 0
341 2 2.4 132.85962444039626 -136.78935669874636 1.9725000000000001 0 0 0
342 3 -1.2 130.89475831122115 -136.96272723955593 1.9725000000000001 0 0 0
343 3 -1.2 133.03299498120577 -138.7542228279214 1.9725000000000001 0 0 0
344 3 -1.2 132.85962444039626 -136.78935669874636 0 0 0 0
345 1 1.2 134.99786111038088 -138.58085228711184 0 0 0 0
346 2 2.4 136.78935669874636 -136.44261561712725 1.9725000000000001 0 0 0
347 3 -1.2 134.8244905695713 -136.6159861579368 1.9725000000000001 0 0 0
348 3 -1.2 136.96272723955593 -138.4074817463023 1.9725000000000001 0 0 0
349 3 -1.2 136.78935669874636 -136.44261561712725 0 0 0 0
350 1 1.2 138.92759336873098 -138.23411120549272 0 0 0 0
351 2 2.4 140.71908895709652 -136.0958745355081 1.9725000000000001 0 0 0
352 3 -1.2 138.75422282792147 -136.26924507631767 1.9725000000000001 0 0 0
353 3 -1.2 140.8924594979061 -138.06074066468315 1.9725000000000001 0 0 0
354 3 -1.2 140.71908895709652 -136.0958745355081 0 0 0 0
355 1 1.2 142.85732562708114 -137.8873701238736 0 0 0 0
356 2 2.4 144.64882121544662 -135.749133453889 1.9725000000000001 0 0 0
357 3 -1.2 142.68395508627157 -135.92250399469856 1.9725000000000001 0 0 0
358 3 -1.2 144.8221917562562 -137.71399958306404 1.9725000000000001 0 0 0
359 3 -1.2 144.64882121544662 -135.749133453889 0 0 0 0
360 1 1.2 146.78705788543124 -137.54062904225447 0 0 0 0
361 2 2.4 148.57855347379677 -135.40239237226984 1.9725000000000001 0 0 0
362 3 -1.2 146.61368734462167 -135.57576291307942 1.9725000000000001 0 0 0
363 3 -1.2 148.7519240146063 -137.3672585014449 1.9725000000000001 0 0 0
364 3 -1.2 148.57855347379677 -135.40239237226984 0 0 0 0
365 1 1.2 150.7167901437814 -137.19388796063535 0 0 0 0
366 2 2.4 152.50828573214687 -135.05565129065073 1.9725000000000001 0 0 0
367 3 -1.2 150.54341960297177 -135.2290218314603 1.9725000000000001 0 0 0
368 3 -1.2 152.68165627295645 -137.02051741982578 1.9725000000000001 0 0 0
369 3 -1.2 152.50828573214687 -135.05565129065073 0 0 0 0
370 1 1.2 154.6465224021315 -136.8471468790162 0 0 0 0
371 2 2.4 156.43801799049697 -134.7089102090316 1.9725000000000001 0 0 0
372 3 -1.2 154.47315186132192 -134.88228074984116 1.9725000000000001 0 0 0
373 3 -1.2 156.6113885313066 -136.67377633820664 1.9725000000000001 0 0 0
374 3 -1.2 156.43801799049697 -134.7089102090316 0 0 0 0
375 1 1.2 158.57625466048165 -136.5004057973971 0 0 0 0
376 2 2.4 160.36775024884713 -134.36216912741247 1.9725000000000001 0 0 0
377 3 -1.2 158.40288411967208 -134.53553966822204 1.9725000000000001 0 0 0
378 3 -1.2 160.5411207896567 -136.32703525658752 1.9725000000000001 0 0 0
379 3 -1.2 160.36775024884713 -134.36216912741247 0 0 0 0
380 1 1.2 162.50598691883175 -136.15366471577795 0 0 0 0
381 2 2.4 164.2974825071973 -134.01542804579333 1.9725000000000001 0 0 0
382 3 -1.2 162.33261637802218 -134.1887985866029 1.9725000000000001 0 0 0
383 3 -1.2 164.4708530480068 -135.98029417496838 1.9725000000000001 0 0 0
384 3 -1.2 164.2974825071973 -134.01542804579333 0 0 0 0
385 1 1.2 166.4357191771819 -135.80692363415884 0 0 0 0
386 2 2.4 168.2272147655474 -133.6686869641742 1.9725000000000001 0 0 0
387 3 -1.2 166.26234863637228 -133.84205750498379 1.9725000000000001 0 0 0
388 3 -1.2 168.40058530635696 -135.63355309334926 1.9725000000000001 0 0 0
389 3 -1.2 168.2272147655474 -133.6686869641742 0 0 0 0
390 1 1.2 170.365451435532 -135.4601825525397 0 0 0 0
391 2 2.4 172.1569470238975 -133.32194588255507 1.9725000000000001 0 0 0
392 3 -1.2 170.19208089472244 -133.49531642336464 1.9725000000000001 0 0 0
393 3 -1.2 172.33031756470706 -135.28681201173012 1.9725000000000001 0 0 0
394 3 -1.2 172.1569470238975 -133.32194588255507 0 0 0 0
395 1 1.2 174.29518369388217 -135.11344147092058 0 0 0 0
396 2 2.4 176.08667928224764 -132.97520480093596 1.9725000000000001 0 0 0
397 3 -1.2 174.1218131530726 -133.14857534174553 1.9725000000000001 0 0 0
398 3 -1.2 176.26004982305722 -134.940070930111 1.9725000000000001 0 0 0
399 3 -1.2 176.08667928224764 -132.97520480093596 0 0 0 0
400 1 1.2 178.22491595223227 -134.76670038930143 0 0 0 0
401 2 2.4 180.0164115405978 -132.6284637193168 1.9725000000000001 0 0 0
402 3 -1.2 178.0515454114227 -132.80183426012638 1.9725000000000001 0 0 0
403 3 -1.2 180.18978208140732 -134.59332984849186 1.9725000000000001 0 0 0
404 3 -1.2 180.0164115405978 -132.6284637193168 0 0 0 0
405 1 1.2 182.15464821058242 -134.41995930768232 0 0 0 0
406 2 2.4 183.9461437989479 -132.2817226376977 1.9725000000000001 0 0 0
407 3 -1.2 181.9812776697728 -132.45509317850727 1.9725000000000001 0 0 0
408 3 -1.2 184.11951433975747 -134.24658876687275 1.9725000000000001 0 0 0
409 3 -1.2 183.9461437989479 -132.2817226376977 0 0 0 0
410 1 1.2 186.08438046893252 -134.07321822606318 0 0 0 0
411 2 2.4 187.875876057298 -131.93498155607855 1.9725000000000001 0 0 0
412 3 -1.2 185.91100992812295 -132.10835209688813 1.9725000000000001 0 0 0
413 3 -1.2 188.04924659810757 -133.8998476852536 1.9725000000000001 0 0 0
414 3 -1.2 187.875876057298 -131.93498155607855 0 0 0 0
415 1 1.2 190.01411272728268 -133.72647714444406 0 0 0 0
416 2 2.4 191.80560831564816 -131.58824047445944 1.9725000000000001 0 0 0
417 3 -1.2 189.8407421864731 -131.761611015269 1.9725000000000001 0 0 0
418 3 -1.2 191.97897885645773 -133.5531066036345 1.9725000000000001 0 0 0
419 3 -1.2 191.80560831564816 -131.58824047445944 0 0 0 0
420 1 1.2 193.94384498563278 -133.37973606282492 0 0 0 0
421 2 2.4 195.73534057399831 -131.2414993928403 1.9725000000000001 0 0 0
422 3 -1.2 193.7704744448232 -131.41486993364987 1.9725000000000001 0 0 0
423 3 -1.2 195.90871111480783 -133.20636552201535 1.9725000000000001 0 0 0
424 3 -1.2 195.73534057399831 -131.2414993928403 0 0 0 0
425 1 1.2 197.87357724398294 -133.03299498120577 0 0 0 0
426 2 2.4 199.66507283234841 -130.89475831122118 1.9725000000000001 0 0 0
427 3 -1.2 197.7002067031733 -131.06812885203072 1.9725000000000001 0 0 0
428 3 -1.2 199.838443373158 -132.85962444039623 1.9725000000000001 0 0 0
429 3 -1.2 199.66507283234841 -130.89475831122118 0 0 0 0
430 1 1.2 201.80330950233304 -132.68625389958666 0 0 0 0
431 2 2.4 203.59480509069851 -130.54801722960204 1.9725000000000001 0 0 0
432 3 -1.2 201.62993896152346 -130.7213877704116 1.9725000000000001 0 0 0
433 3 -1.2 203.7681756315081 -132.5128833587771 1.9725000000000001 0 0 0
434 3 -1.2 203.59480509069851 -130.54801722960204 0 0 0 0
435 1 1.2 205.73304176068314 -132.33951281796755 0 0 0 0
436 2 2.4 207.52453734904867 -130.20127614798292 1.9725000000000001 0 0 0
437 3 -1.2 205.55967121987362 -130.3746466887925 1.9725000000000001 0 0 0
438 3 -1.2 207.69790788985824 -132.16614227715797 1.9725000000000001 0 0 0
439 3 -1.2 207.52453734904867 -130.20127614798292 0 0 0 0
440 1 1.2 209.6627740190333 -131.9927717363484 0 0 0 0
441 2 2.4 211.45426960739883 -129.85453506636378 1.9725000000000001 0 0 0
442 3 -1.2 209.48940347822372 -130.02790560717335 1.9725000000000001 0 0 0
443 3 -1.2 211.62764014820834 -131.81940119553883 1.9725000000000001 0 0 0