LAMMPS data file via write_data, version 17 Apr 2024, timestep = 24, units = metal

13934 atoms
3 atom types

-1.2177705072904224 238.73822357396844 xlo xhi
-47.090455103060016 47.090455103060016 ylo yhi
0.026483588211507352 7.863516411788494 zlo zhi

Masses

1 87.62
2 47.867
3 15.999

Atoms # charge

7450 1 1.19442724458204 -0.09981466405746581 -46.44836814042642 0.026483589372179428 0 0 0
7452 3 -1.20210353160704 0.25606376321493873 -44.57569550396724 1.985741794951623 0 0 0
7453 3 -1.20210353160704 1.7750900646013728 -47.00773840224808 1.985741794493273 0 1 0
7451 2 2.39582187119593 2.3788540655813906 -45.12885854589472 1.9857417943396036 0 0 0
7454 3 -1.20210353160704 2.249271061363655 -45.14265582676981 0.026483588462895124 0 0 0
7457 3 -1.20210353160704 4.196029534610968 -45.61662481807986 1.9857417941963413 0 0 0
7456 2 2.39582187119593 6.221819309454577 -45.7959023443927 1.9857417941273663 0 0 0
7459 3 -1.20210353160704 6.121211908175881 -45.80872217916244 0.026483588236927043 0 0 0
7462 3 -1.20210353160704 8.042689702474203 -46.15984218589318 1.9857417941143638 0 0 0
7625 1 1.19442724458204 8.577205495652345 -44.17311833903501 0.026483588213421533 0 0 0
7461 2 2.39582187119593 10.05021755383934 -46.517878070015506 1.9857417941068718 0 0 0
7464 3 -1.20210353160704 9.938728956980052 -46.54963278790009 0.02648358821318033 0 0 0
7628 3 -1.20210353160704 10.313684751193936 -44.57401987930398 1.985741794106132 0 0 0
7467 3 -1.20210353160704 11.845988646016199 -46.962593685491434 1.985741794106249 0 1 0
7630 1 1.19442724458204 12.462606655315627 -44.99001433149912 0.026483588211572314 0 0 0
7633 3 -1.20210353160704 14.16849328980695 -45.39438452847521 1.9857417941057087 0 0 0
7637 3 -1.20210353160704 16.519624969220022 -43.859871871669775 1.9857417941057591 0 0 0
7638 3 -1.20210353160704 18.083818051729402 -46.223129048795045 1.9857417941057398 0 0 0
11114 1 1.19442724458204 16.35764801230139 -45.82374185123582 3.9449999999999896 0 0 0
11118 3 -1.20210353160704 18.483616696913217 -44.27067241896888 3.9449999999999967 0 0 0
7636 2 2.39582187119593 18.619418973551877 -44.27471319991541 1.9857417941057527 0 0 0
7642 3 -1.20210353160704 20.43322938465906 -44.68333070636139 1.9857417941057505 0 0 0
11119 1 1.19442724458204 20.268892760343736 -46.64179907466088 3.944999999999997 0 0 0
7641 2 2.39582187119593 22.532915746260684 -45.09196802300703 1.9857417941057485 0 0 0
7647 3 -1.20210353160704 24.348429250913842 -45.49622143427734 1.9857417941057565 0 0 0
7643 3 -1.20210353160704 21.999046345763222 -47.03571324898583 1.9857417941057531 0 1 0
11123 3 -1.20210353160704 22.398043361721214 -45.0866919552014 3.9449999999999985 0 0 0
7646 2 2.39582187119593 26.44444455634747 -45.8876560503419 1.9857417941057485 0 0 0
7652 3 -1.20210353160704 28.264880302113358 -46.280066367778375 1.9857417941057516 0 0 0
7839 3 -1.20210353160704 26.709166059259154 -43.95023175923993 1.9857417941057527 0 0 0
11128 3 -1.20210353160704 26.313755374870887 -45.88224621115531 3.9449999999999985 0 0 0
7651 2 2.39582187119593 30.365040795150108 -46.68197473365889 1.9857417941057485 0 0 0
7844 3 -1.20210353160704 30.63640813491 -44.74757428591345 1.9857417941057518 0 0 0
7849 3 -1.20210353160704 34.550910435660946 -45.53401100139904 1.9857417941057496 0 0 0
7657 3 -1.20210353160704 32.1862645854831 -47.07524628362782 1.9857417941057556 0 1 0
11325 1 1.19442724458204 32.8074427630661 -45.1515210857862 3.944999999999999 0 0 0
7851 1 1.19442724458204 36.721188544004434 -45.94713587232786 0.02648358821150912 0 0 0
7853 3 -1.20210353160704 36.89508713788749 -43.98905912962234 1.9857417941057591 0 0 0
11330 1 1.19442724458204 36.721188544004434 -45.94713587232787 3.944999999999996 0 0 0
7852 2 2.39582187119593 38.97849703955186 -44.38359712897979 1.985741794105749 0 0 0
7854 3 -1.20210353160704 38.47401007342491 -46.32443715669426 1.9857417941057485 0 0 0
7858 3 -1.20210353160704 40.80990989818099 -44.76957443792743 1.9857417941057505 0 0 0
7857 2 2.39582187119593 42.88475826015305 -45.168479533441484 1.9857417941057591 0 0 0
7860 3 -1.20210353160704 42.769519389827366 -45.15658625041025 0.026483588211508237 0 0 0
7863 3 -1.20210353160704 44.71955870868025 -45.55071110860746 1.9857417941057578 0 0 0
11339 3 -1.20210353160704 42.769519389827366 -45.15658625041026 3.944999999999996 0 0 0
7862 2 2.39582187119593 46.78263542591818 -45.94404721067876 1.9857417941057505 0 0 0
7865 3 -1.20210353160704 46.674666502095114 -45.93136261273447 0.026483588211510884 0 0 0
8082 3 -1.20210353160704 47.06339636323016 -43.98796083007119 1.9857417941057542 0 0 0
11344 3 -1.20210353160704 46.674666502095114 -45.93136261273445 3.9449999999999905 0 0 0
7867 2 2.39582187119593 50.67679950762018 -46.71471130227479 1.9857417941057403 0 0 0
7868 3 -1.20210353160704 48.62282564900941 -46.31747489828034 1.9857417941057505 0 0 0
7870 3 -1.20210353160704 50.57454977892207 -46.701017905578446 0.026483588211507352 0 0 0
8084 1 1.19442724458204 49.19377645910164 -44.39295411632152 0.026483588211510884 0 0 0
8087 3 -1.20210353160704 50.96783778250109 -44.75696548004818 1.9857417941057522 0 0 0
11349 3 -1.20210353160704 50.574549778922034 -46.70101790557844 3.9449999999999985 0 0 0
11563 1 1.19442724458204 49.19377645910164 -44.39295411632152 3.9449999999999914 0 0 0
7873 3 -1.20210353160704 52.52164045599919 -47.086444598176335 1.9857417941057485 0 1 0
11568 1 1.19442724458204 53.08170404592542 -45.15921448648107 3.9449999999999985 0 0 0
8092 3 -1.20210353160704 54.86210884861885 -45.52173824040158 1.9857417941057574 0 0 0
8094 1 1.19442724458204 56.97157401513536 -45.92759354287419 0.026483588211507352 0 0 0
8096 3 -1.20210353160704 57.19579266421771 -43.95998454967045 1.9857417941057507 0 0 0
11573 1 1.19442724458204 56.971574015135396 -45.9275935428742 3.944999999999994 0 0 0
8095 2 2.39582187119593 59.24108380860753 -44.35367588166347 1.9857417941057578 0 0 0
8097 3 -1.20210353160704 58.76428656414833 -46.291191340160644 1.9857417941057485 0 0 0
8098 3 -1.20210353160704 59.150080831886854 -44.34329229018399 0.026483588211507352 0 0 0
8101 3 -1.20210353160704 61.097452630591924 -44.72916669358244 1.9857417941057594 0 0 0
11577 3 -1.20210353160704 59.15008083188688 -44.34329229018399 3.9449999999999945 0 0 0
8100 2 2.39582187119593 63.140996781587184 -45.128392907090976 1.9857417941057591 0 0 0
8102 3 -1.20210353160704 62.66442688561355 -47.062271087992805 1.9857417941057485 0 1 0
8105 2 2.39582187119593 67.04036650028878 -45.90413544260548 1.9857417941057485 0 0 0
8106 3 -1.20210353160704 65.00052866520089 -45.506726263715194 1.9857417941057542 0 0 0
8108 3 -1.20210353160704 66.95588220221813 -45.8925126686738 0.026483588211511755 0 0 0
8351 3 -1.20210353160704 67.35027142017732 -43.95299819422651 1.9857417941057547 0 0 0
11587 3 -1.20210353160704 66.9558822022181 -45.89251266867378 3.9449999999999896 0 0 0
8110 2 2.39582187119593 70.94255573295234 -46.68435813206713 1.9857417941057547 0 0 0
8111 3 -1.20210353160704 68.90356026874811 -46.28040556212602 1.9857417941057487 0 0 0
8113 3 -1.20210353160704 70.86033725744988 -46.6704359342826 0.02648358821150912 0 0 0
11592 3 -1.20210353160704 70.86033725744986 -46.6704359342826 3.944999999999991 0 0 0
8356 3 -1.20210353160704 71.25816910731417 -44.73221063058973 1.9857417941057485 0 0 0
8358 1 1.19442724458204 73.34446740784459 -45.14841582216058 0.026483588211507352 0 0 0
8116 3 -1.20210353160704 72.80819353219255 -47.062350833015245 1.9857417941057476 0 1 0
11837 1 1.19442724458204 73.3444674078446 -45.14841582216058 3.9449999999999963 0 0 0
8361 3 -1.20210353160704 75.16382157511147 -45.51481629315638 1.9857417941057496 0 0 0
8365 3 -1.20210353160704 77.50501445388129 -43.967154425079904 1.9857417941057518 0 0 0
8364 2 2.39582187119593 79.53420848010713 -44.37651409747964 1.9857417941057696 0 0 0
8366 3 -1.20210353160704 79.07403309856936 -46.301418646553124 1.9857417941057591 0 0 0
8367 3 -1.20210353160704 79.46253603587704 -44.35731651577991 0.026483588211508237 0 0 0
11846 3 -1.20210353160704 79.46253603587704 -44.35731651577991 3.9449999999999936 0 0 0
8368 1 1.19442724458204 81.14506136956862 -46.733562156393845 0.026483588211507352 0 0 0
8369 2 2.39582187119593 83.43356741452585 -45.16252601181335 1.9857417941057522 0 0 0
8370 3 -1.20210353160704 81.41194278514493 -44.748716142494196 1.9857417941057591 0 0 0
8371 3 -1.20210353160704 82.98036248572086 -47.083224699917196 1.985741794105756 0 1 0
11847 1 1.19442724458204 81.14506136956862 -46.733562156393845 3.9449999999999945 0 0 0
11851 3 -1.20210353160704 83.36712565280472 -45.139445274029 3.9449999999999967 0 0 0
8374 2 2.39582187119593 87.32847238588172 -45.94108691677882 1.9857417941057485 0 0 0
8375 3 -1.20210353160704 85.3165164883544 -45.52731750848793 1.9857417941057534 0 0 0
8642 3 -1.20210353160704 87.66523976083025 -43.96624216938922 1.9857417941057507 0 0 0
8380 3 -1.20210353160704 89.21909563551175 -46.29668563245506 1.9857417941057451 0 0 0
8379 2 2.39582187119593 91.22244564112735 -46.713641294091616 1.985741794105748 0 0 0
8382 3 -1.20210353160704 91.1728370971851 -46.68227237867536 0.026483588211511755 0 0 0
8647 3 -1.20210353160704 91.5683464150542 -44.735209148649936 1.9857417941057542 0 0 0
8385 3 -1.20210353160704 93.12175504963088 -47.06524677322826 1.9857417941057425 0 1 0
11861 3 -1.20210353160704 91.17283709718508 -46.68227237867534 3.94499999999999 0 0 0
12128 1 1.19442724458204 93.59113160028932 -45.16913438712055 3.944999999999996 0 0 0
8652 3 -1.20210353160704 95.46879842783713 -45.50389386483725 1.9857417941057485 0 0 0
8655 2 2.39582187119593 99.79143418023915 -44.36745471464317 1.9857417941057485 0 0 0
8656 3 -1.20210353160704 97.80813750166217 -43.95382278114588 1.985741794105748 0 0 0
8657 3 -1.20210353160704 99.3730522721175 -46.27769337661346 1.9857417941057485 0 0 0
8658 3 -1.20210353160704 99.76191074800616 -44.34103556502892 0.026483588211519696 0 0 0
12133 1 1.19442724458204 97.47783944452092 -45.94252663724389 3.944999999999997 0 0 0
12137 3 -1.20210353160704 99.76191074800616 -44.34103556502894 3.9449999999999847 0 0 0
8660 2 2.39582187119593 103.68590705549289 -45.14543403033863 1.9857417941057516 0 0 0
8661 3 -1.20210353160704 101.71155212607226 -44.72985504724855 1.9857417941057582 0 0 0
8663 3 -1.20210353160704 103.6639407079503 -45.11933895691317 0.026483588211508237 0 0 0
8662 3 -1.20210353160704 103.27584779538397 -47.05508732775071 1.9857417941057582 0 1 0
12142 3 -1.20210353160704 103.66394070795023 -45.11933895691317 3.944999999999996 0 0 0
8666 3 -1.20210353160704 105.61361251563362 -45.5099034676637 1.9857417941057485 0 0 0
8665 2 2.39582187119593 107.57855707862127 -45.92439526730521 1.9857417941057642 0 0 0
8668 3 -1.20210353160704 107.56380468127497 -45.89939232059425 0.026483588211512643 0 0 0
8671 3 -1.20210353160704 109.51249110058632 -46.28979330606045 1.9857417941057518 0 0 0
8937 3 -1.20210353160704 107.95738314655047 -43.955720615228266 1.9857417941057485 0 0 0
12147 3 -1.20210353160704 107.56380468127497 -45.89939232059425 3.9449999999999896 0 0 0
12418 1 1.19442724458204 109.9253187986243 -44.38402150594159 3.9449999999999985 0 0 0
8670 2 2.39582187119593 111.46900968565512 -46.70484438456897 1.9857417941057578 0 0 0
8942 3 -1.20210353160704 111.85521822666286 -44.73571968094742 1.985741794105751 0 0 0
8676 3 -1.20210353160704 113.40703487998029 -47.0727496391891 1.9857417941057516 0 1 0
8947 3 -1.20210353160704 115.74684089224583 -45.5169699003963 1.9857417941057633 0 0 0
8950 2 2.39582187119593 120.02665516195489 -44.378760544544875 1.9857417941057547 0 0 0
8951 3 -1.20210353160704 118.08393909638349 -43.9682501539559 1.9857417941057516 0 0 0
8952 3 -1.20210353160704 119.63801913017252 -46.29980831931019 1.9857417941057522 0 0 0
8953 3 -1.20210353160704 120.02855623109858 -44.359126949934726 0.02648358821151128 0 0 0
12432 3 -1.20210353160704 120.02855623109858 -44.3591269499347 3.9449999999999896 0 0 0
8954 1 1.19442724458204 121.57374471186115 -46.730151614042256 0.026483588211511755 0 0 0
8956 3 -1.20210353160704 121.97444907541731 -44.747709299544866 1.985741794105748 0 0 0
8957 3 -1.20210353160704 123.52441250403217 -47.079742271790494 1.985741794105751 0 1 0
12433 1 1.19442724458204 121.57374471186115 -46.730151614042256 3.9449999999999896 0 0 0
8955 2 2.39582187119593 123.91032683307405 -45.16112205083563 1.9857417941057591 0 0 0
8961 3 -1.20210353160704 125.86303441088232 -45.52784069860567 1.9857417941057485 0 0 0
8960 2 2.39582187119593 127.79250578572785 -45.941985592588296 1.9857417941057578 0 0 0
8963 3 -1.20210353160704 127.80613787699193 -45.917869329190786 0.026483588211510006 0 0 0
8966 3 -1.20210353160704 129.75148113268875 -46.30440333244067 1.9857417941057491 0 0 0
9218 3 -1.20210353160704 128.20364252057334 -43.96659950402785 1.9857417941057522 0 0 0
12442 3 -1.20210353160704 127.80613787699193 -45.917869329190786 3.9449999999999914 0 0 0
12699 1 1.19442724458204 130.1178529979496 -44.3955918274562 3.944999999999999 0 0 0
8965 2 2.39582187119593 131.6743296442498 -46.721090174768435 1.9857417941057347 0 0 0
9223 3 -1.20210353160704 132.09366520972546 -44.742286042088146 1.9857417941057547 0 0 0
12447 3 -1.20210353160704 131.69457177407875 -46.69392266690269 3.9449999999999856 0 0 0
9228 3 -1.20210353160704 135.98093840907816 -45.51825038589954 1.9857417941057165 0 0 0
8971 3 -1.20210353160704 133.64014324402072 -47.08223550210208 1.985741794105728 0 1 0
12704 1 1.19442724458204 133.9951395949547 -45.17439911596593 3.9449999999999887 0 0 0
9232 3 -1.20210353160704 138.3230905434846 -43.96826777678874 1.9857417941056041 0 0 0
9233 3 -1.20210353160704 139.8709035628672 -46.29582670551296 1.9857417941054076 0 0 0
12709 1 1.19442724458204 137.87137758141648 -45.95404836899872 3.944999999999875 0 0 0
9231 2 2.39582187119593 140.22967500603676 -44.381785896551804 1.9857417941054232 0 0 0
9237 3 -1.20210353160704 142.21351322425963 -44.7444863439543 1.9857417941043602 0 0 0
12713 3 -1.20210353160704 140.26609744045555 -44.35824015223456 3.9449999999996237 0 0 0
12714 1 1.19442724458204 141.74763339885493 -46.733605246909406 3.9449999999987555 0 0 0
9236 2 2.39582187119593 144.11259164449055 -45.161442107988805 1.9857417941026203 0 0 0
9242 3 -1.20210353160704 146.10546470623635 -45.52520349710521 1.9857417940933066 0 0 0
9238 3 -1.20210353160704 143.75879367699093 -47.072489164989854 1.9857417941024802 0 1 0
12718 3 -1.20210353160704 144.15662488013402 -45.13727168058508 3.9449999999964565 0 0 0
9241 2 2.39582187119593 147.99775897131065 -45.94240699382718 1.9857417940779547 0 0 0
9473 3 -1.20210353160704 148.4489370910256 -43.96635130965992 1.9857417940933886 0 0 0
12723 3 -1.20210353160704 148.04950166306463 -45.91721466993947 3.9449999999684695 0 0 0
9246 2 2.39582187119593 151.88512874230474 -46.72560978746253 1.985741793867436 0 0 0
9247 3 -1.20210353160704 149.9999449612941 -46.3064930473743 1.9857417939985873 0 0 0
9478 3 -1.20210353160704 152.34497265741817 -44.74824796453753 1.9857417939973083 0 0 0
12728 3 -1.20210353160704 151.94388636680483 -46.69998367677497 3.94499999973104 0 0 0
12954 1 1.19442724458204 150.3036076888603 -44.397328217815 3.944999999960624 0 0 0
9483 3 -1.20210353160704 156.23790129527583 -45.530531744560484 1.9857417931945813 0 0 0
12959 1 1.19442724458204 154.18673892615124 -45.17882598857148 3.944999999673626 0 0 0
9487 3 -1.20210353160704 158.5869210622745 -43.98513579072492 1.9857417919094882 0 0 0
12964 1 1.19442724458204 158.0700670960291 -45.960292755299555 3.944999997381092 0 0 0
9486 2 2.39582187119593 160.45984819250066 -44.396341127443236 1.9857417890799656 0 0 0
9488 3 -1.20210353160704 160.13374553588218 -46.31488196943945 1.9857417866566052 0 0 0
9492 3 -1.20210353160704 162.48287499354697 -44.76741024504369 1.9857417776217536 0 0 0
12968 3 -1.20210353160704 160.53096249725735 -44.37827437516356 3.944999994425451 0 0 0
12969 1 1.19442724458204 161.95570425669973 -46.74123558352424 3.9449999795286925 0 0 0
9491 2 2.39582187119593 164.35036506853385 -45.1785195195031 1.9857417561371722 0 0 0
9497 3 -1.20210353160704 166.37856820657314 -45.55013823121423 1.9857416736894034 0 0 0
12973 3 -1.20210353160704 164.4265811702901 -45.16242096301993 3.944999958038372 0 0 0
9496 2 2.39582187119593 168.24128698253992 -45.95951696777154 1.9857415143754653 0 0 0
9703 3 -1.20210353160704 168.7184443954715 -43.98732385643908 1.9857416691104852 0 0 0
12978 3 -1.20210353160704 168.32146343554408 -45.94388785822174 3.944999691973176 0 0 0
9501 2 2.39582187119593 172.13089519184052 -46.73621861987651 1.9857397901907787 0 0 0
9502 3 -1.20210353160704 170.27239207158942 -46.329085172743426 1.9857409386986147 0 0 0
9708 3 -1.20210353160704 172.61101166161836 -44.76078302398391 1.985740901617069 0 0 0
12983 3 -1.20210353160704 172.21344064210214 -46.71917950875322 3.9449978046903005 0 0 0
13184 1 1.19442724458204 170.52448586747718 -44.402384273090675 3.944999702269082 0 0 0
13189 1 1.19442724458204 174.40871567909835 -45.17494129404173 3.9449979595879885 0 0 0
9713 3 -1.20210353160704 176.49910400882663 -45.533127467781426 1.9857356225635163 0 0 0
9717 3 -1.20210353160704 178.8449145466411 -43.981208419334344 1.9857345630243455 0 0 0
13194 1 1.19442724458204 178.29125820875186 -45.949775499792985 3.944986699234372 0 0 0
9716 2 2.39582187119593 180.69465044209846 -44.38897822008216 1.985724077915754 0 0 0
9718 3 -1.20210353160704 180.39146681690633 -46.31035244089492 1.9857014076371797 0 0 0
9722 3 -1.20210353160704 182.7355660379374 -44.75732004060279 1.9857019005412113 0 0 0
13198 3 -1.20210353160704 180.78697869795099 -44.373481945021744 3.9449809092502295 0 0 0
13199 1 1.19442724458204 182.17668339801423 -46.730087638554096 3.9449243399345804 0 0 0
9721 2 2.39582187119593 184.58029235075247 -45.16768121086777 1.985648435319788 0 0 0
9723 3 -1.20210353160704 184.28443268609908 -47.08623341731093 1.9855300385058599 0 1 0
13203 3 -1.20210353160704 184.67661273767283 -45.149893938924315 3.9449003274353567 0 0 0
9726 2 2.39582187119593 188.46600276246585 -45.942570852493354 1.9853969720033124 0 0 0
9727 3 -1.20210353160704 186.6265874622429 -45.53193369748876 1.9855678587678796 0 0 0
9905 3 -1.20210353160704 188.959308736029 -43.95820050719414 1.9855568006530324 0 0 0
13208 3 -1.20210353160704 188.56704680613822 -45.92233040773609 3.9446409470373207 0 0 0
9731 2 2.39582187119593 192.34825175582822 -46.71042227129843 1.9851095178513776 0 0 0
9732 3 -1.20210353160704 190.51447067655093 -46.29804853982463 1.9852764044526747 0 0 0
13213 3 -1.20210353160704 192.4518232416343 -46.68672499358779 3.9443911119514423 0 0 0
13386 1 1.19442724458204 190.72058903668074 -44.37491057105189 3.944773405265664 0 0 0
9910 3 -1.20210353160704 192.8453096774756 -44.71734454723843 1.9852982779385127 0 0 0
9737 3 -1.20210353160704 194.39459027062304 -47.051436754840324 1.9852221903149778 0 1 0
13391 1 1.19442724458204 194.59562358660955 -45.135813020891355 3.9445829373834935 0 0 0
9915 3 -1.20210353160704 196.7239786753492 -45.467720337205456 1.9854241871084353 0 0 0
9919 3 -1.20210353160704 199.07256238154525 -43.913921481721665 1.9855889988588695 0 0 0
13396 1 1.19442724458204 198.46790942037268 -45.8875825458748 3.944696712140664 0 0 0
9918 2 2.39582187119593 200.8956039466526 -44.325402339529454 1.9857030116963785 0 0 0
9920 3 -1.20210353160704 200.6172693243711 -46.227020113752296 1.9858348851166105 0 0 0
9922 1 1.19442724458204 202.3610562134945 -46.652508155932665 0.026669456154075892 0 0 0
13400 3 -1.20210353160704 201.02032188463173 -44.30738369016155 3.9449662303050985 0 0 0
9923 2 2.39582187119593 204.80245713400006 -45.106441499789085 1.9859414486210414 0 0 0
9924 3 -1.20210353160704 202.98219795083054 -44.69046025480426 1.9857785866556381 0 0 0
9926 3 -1.20210353160704 204.93389143869368 -45.089751985268585 0.026697404723508504 0 0 0
9925 3 -1.20210353160704 204.53035982694269 -47.005369362535724 1.9862742615366633 0 1 0
9928 2 2.39582187119593 208.7220909141671 -45.898785317405604 1.986153360520824 0 0 0
9929 3 -1.20210353160704 206.90592112950154 -45.476319551519644 1.9859879253237096 0 0 0
9931 3 -1.20210353160704 208.86012990995224 -45.88244783582042 0.026896548272199325 0 0 0
9934 3 -1.20210353160704 210.8435457250835 -46.274565462824505 1.9861078138393138 0 0 0
10082 3 -1.20210353160704 209.2653543673666 -43.948433407693095 1.985998242766156 0 0 0
10084 1 1.19442724458204 211.00072177361122 -44.38015886750424 0.026705878907974778 0 0 0
9933 2 2.39582187119593 212.65675563976805 -46.697376812433426 1.9861903594600674 0 0 0
9936 3 -1.20210353160704 212.79876085057393 -46.6776847585763 0.026940510053488586 0 0 0
10087 3 -1.20210353160704 213.20091806542126 -44.740136570015025 1.9860081208254379 0 0 0
10089 1 1.19442724458204 214.93231999721198 -45.17225604682343 0.026708725805780504 0 0 0
9939 3 -1.20210353160704 214.78500427552694 -47.06742415165841 1.986068616992631 0 1 0
10092 3 -1.20210353160704 217.14539281887943 -45.527056845189016 1.9859255668951137 0 0 0
10094 1 1.19442724458204 218.8655560850556 -45.956910657300526 0.026605132352525693 0 0 0
10095 2 2.39582187119593 221.3138746165591 -44.40074088599456 1.985764651113681 0 0 0
10096 3 -1.20210353160704 219.50714284769876 -43.979165765231514 1.9857746000074905 0 0 0
10097 3 -1.20210353160704 221.062462516379 -46.304144076435186 1.9857989892613053 0 0 0
10098 3 -1.20210353160704 221.45254389687094 -44.369700283376744 0.026507007220841237 0 0 0
10099 1 1.19442724458204 222.77774855297014 -46.73158506951869 0.026514476960099637 0 0 0
10100 2 2.39582187119593 225.21297379347257 -45.1492333888761 1.9857434078869727 0 0 0
10101 3 -1.20210353160704 223.40455816098142 -44.752232140677904 1.9857496352603363 0 0 0
10103 3 -1.20210353160704 225.34495925379593 -45.12809946772034 0.026485945540038136 0 0 0
10102 3 -1.20210353160704 224.99541916636701 -47.072162452757624 1.985751071746341 0 1 0
10106 3 -1.20210353160704 227.2948750507307 -45.429029783944856 1.985742485304902 0 0 0
10105 2 2.39582187119593 229.06849061942555 -45.92344581535726 1.9857422697446072 0 0 0
10108 3 -1.20210353160704 229.19494054006176 -45.87415604184442 0.026484213089837495 0 0 0
10111 3 -1.20210353160704 231.07568447298252 -46.36049881233376 1.985742037286542 0 0 0
10233 3 -1.20210353160704 229.7177069585338 -43.878844750889094 1.9857419630702142 0 0 0
10235 1 1.19442724458204 231.32914227358825 -44.366447368217926 0.026483693701656503 0 0 0
10110 2 2.39582187119593 232.89638006763676 -46.70440613981382 1.9857418997446485 0 0 0
10113 3 -1.20210353160704 232.9862920415077 -46.71079640544422 0.026483693353865214 0 0 0
10238 3 -1.20210353160704 233.3167423817407 -44.69784464968529 1.9857418309131514 0 0 0
10240 1 1.19442724458204 235.1939440024363 -45.19582597160711 0.026483605241425547 0 0 0
10116 3 -1.20210353160704 234.88192591933094 -46.936134610001666 1.985741840176038 0 1 0
10243 3 -1.20210353160704 237.8971145991137 -46.16740907776815 1.9857418011117378 0 0 0
10241 2 2.39582187119593 238.16738762025602 -44.254083882033015 1.9857417966131286 0 0 0
10242 3 -1.20210353160704 236.1990986603185 -43.913352024640155 1.985741800491624 0 0 0
10244 3 -1.20210353160704 238.20012726816742 -44.26627544301001 0.026483591066458357 0 0 0
7613 2 2.39582187119593 -0.5540996405588627 -40.8569907457026 1.9857417943915694 0 0 0
7614 3 -1.20210353160704 -0.806559473079644 -40.84774318584539 0.02648358862261686 0 0 0
7615 1 1.19442724458204 0.9009580872527155 -42.95109278817765 0.026483588512419283 0 0 0
7617 3 -1.20210353160704 1.1807547854395648 -41.24332066126465 1.9857417942405413 0 0 0
7616 2 2.39582187119593 3.069804215269289 -41.17952882678258 1.9857417941542463 0 0 0
7618 3 -1.20210353160704 2.828650833132844 -43.27540471757173 1.9857417941989222 0 0 0
7619 3 -1.20210353160704 3.0300615809729736 -41.10838761054403 0.026483588266170675 0 0 0
7620 1 1.19442724458204 4.739781957314315 -43.463047524115105 0.026483588236746194 0 0 0
7622 3 -1.20210353160704 4.905235562996305 -41.37492996146536 1.9857417941258415 0 0 0
7623 3 -1.20210353160704 6.408386610463021 -43.837382074916114 1.9857417941158555 0 0 0
7621 2 2.39582187119593 6.904786882012654 -41.762872870466325 1.985741794111098 0 0 0
7624 3 -1.20210353160704 6.802750129424325 -41.796646684307746 0.02648358821776765 0 0 0
7627 3 -1.20210353160704 8.715402006681623 -42.19693588995692 1.9857417941078646 0 0 0
7626 2 2.39582187119593 10.803802476597543 -42.58628683589162 1.9857417941061466 0 0 0
7629 3 -1.20210353160704 10.673461208681072 -42.58839345658888 0.026483588211982018 0 0 0
7819 3 -1.20210353160704 11.04197016283547 -40.63715216762919 1.985741794105897 0 0 0
7631 2 2.39582187119593 14.712263508729576 -43.432901087144074 1.9857417941057642 0 0 0
7632 3 -1.20210353160704 12.618768031460794 -42.994803557433954 1.9857417941059086 0 0 0
7634 3 -1.20210353160704 14.574903130777747 -43.43302588272693 0.02648358821152588 0 0 0
7821 1 1.19442724458204 13.257286200646318 -41.091345181359216 0.026483588211539864 0 0 0
7824 3 -1.20210353160704 14.991357441331827 -41.49899873378802 1.9857417941057547 0 0 0
7826 1 1.19442724458204 17.168534688306742 -41.934432930778286 0.026483588211507352 0 0 0
7829 3 -1.20210353160704 18.889534299073212 -42.33980987685711 1.9857417941057423 0 0 0
7833 3 -1.20210353160704 21.24758536213526 -40.81759639543356 1.9857417941057507 0 0 0
7832 2 2.39582187119593 23.329061793565412 -41.20148629122039 1.9857417941057485 0 0 0
7834 3 -1.20210353160704 22.80899436407301 -43.157987192691266 1.9857417941057565 0 0 0
7838 3 -1.20210353160704 25.14900866494158 -41.59621958904263 1.9857417941057578 0 0 0
7837 2 2.39582187119593 27.24808495551101 -42.012678017096746 1.985741794105749 0 0 0
7840 3 -1.20210353160704 27.114893506391212 -42.00759789576571 0.026483588211508237 0 0 0
11319 3 -1.20210353160704 27.1148935063912 -42.00759789576571 3.9449999999999967 0 0 0
7842 2 2.39582187119593 31.15596460004321 -42.80408917998978 1.9857417941057527 0 0 0
7843 3 -1.20210353160704 29.06580711668566 -42.41623430623482 1.9857417941057487 0 0 0
8062 3 -1.20210353160704 31.424851054616926 -40.86408602258858 1.9857417941057454 0 0 0
11324 3 -1.20210353160704 31.02975968936664 -42.797465115510505 3.944999999999996 0 0 0
7848 3 -1.20210353160704 32.979646835534176 -43.19524960365186 1.9857417941057485 0 0 0
8064 1 1.19442724458204 33.59853632122348 -41.26798478021068 0.026483588211511755 0 0 0
11543 1 1.19442724458204 33.59853632122348 -41.26798478021068 3.9449999999999896 0 0 0
7847 2 2.39582187119593 35.06918647261903 -43.59452793399544 1.9857417941057518 0 0 0
7850 3 -1.20210353160704 34.94467340949495 -43.58582508704472 0.026483588211508237 0 0 0
8067 3 -1.20210353160704 35.34571112176016 -41.65445813493234 1.9857417941057485 0 0 0
8069 1 1.19442724458204 37.50011782490831 -42.05620559739206 0.026483588211507352 0 0 0
11329 3 -1.20210353160704 34.94467340949495 -43.58582508704472 3.944999999999997 0 0 0
11548 1 1.19442724458204 37.50011782490831 -42.056205597392044 3.9449999999999967 0 0 0
8072 3 -1.20210353160704 39.25055116680324 -42.438058828244195 1.9857417941057556 0 0 0
8074 1 1.19442724458204 41.403572714609695 -42.84417195845657 0.026483588211508237 0 0 0
11553 1 1.19442724458204 41.403572714609695 -42.84417195845657 3.9449999999999963 0 0 0
8076 3 -1.20210353160704 41.590646581316314 -40.88573299703889 1.9857417941057485 0 0 0
8075 2 2.39582187119593 43.655790278721135 -41.26820760590592 1.9857417941057522 0 0 0
8077 3 -1.20210353160704 43.16489298814433 -43.218738077667474 1.9857417941057518 0 0 0
8078 3 -1.20210353160704 43.54596845971753 -41.26074324352407 0.026483588211507352 0 0 0
11557 3 -1.20210353160704 43.54596845971751 -41.26074324352407 3.944999999999992 0 0 0
8079 1 1.19442724458204 45.29913189338661 -43.61973157742278 0.026483588211507352 0 0 0
8080 2 2.39582187119593 47.55719516781134 -42.043457974800496 1.9857417941057485 0 0 0
8081 3 -1.20210353160704 45.49407168776705 -41.64712468895123 1.9857417941057485 0 0 0
8083 3 -1.20210353160704 47.44914275445544 -42.03471665765606 0.026483588211510884 0 0 0
11558 1 1.19442724458204 45.29913189338663 -43.6197315774228 3.9449999999999945 0 0 0
11562 3 -1.20210353160704 47.44914275445544 -42.03471665765606 3.944999999999991 0 0 0
8086 3 -1.20210353160704 49.397170824410864 -42.424639590241185 1.9857417941057485 0 0 0
8085 2 2.39582187119593 51.45043413200496 -42.81100054748372 1.9857417941057547 0 0 0
8091 3 -1.20210353160704 53.296607322072106 -43.18523348294604 1.985741794105753 0 0 0
8331 3 -1.20210353160704 51.73833772243452 -40.85677619259438 1.9857417941057578 0 0 0
11812 1 1.19442724458204 53.861941941560396 -41.25737054116735 3.944999999999999 0 0 0
8090 2 2.39582187119593 55.3458019180631 -43.58145403418114 1.9857417941057491 0 0 0
8336 3 -1.20210353160704 55.64633232428896 -41.629280018149274 1.9857417941057531 0 0 0
8341 3 -1.20210353160704 59.542065500293205 -42.40181631808129 1.9857417941057485 0 0 0
8344 2 2.39582187119593 63.92500357931433 -41.240564101604484 1.9857417941057591 0 0 0
8345 3 -1.20210353160704 61.88318421822502 -40.84969676083988 1.9857417941057447 0 0 0
8346 3 -1.20210353160704 63.450419820928545 -43.17900956331928 1.985741794105766 0 0 0
11822 1 1.19442724458204 61.64766294766051 -42.80754324210953 3.9449999999999985 0 0 0
8348 1 1.19442724458204 65.54405073566589 -43.5828974001009 0.026483588211511755 0 0 0
8350 3 -1.20210353160704 65.78667736571934 -41.61800733290395 1.9857417941057498 0 0 0
11827 1 1.19442724458204 65.54405073566599 -43.5828974001009 3.9449999999999905 0 0 0
8349 2 2.39582187119593 67.82825512619564 -42.02006228857719 1.9857417941057542 0 0 0
8355 3 -1.20210353160704 69.69160407182571 -42.40192876679529 1.9857417941057485 0 0 0
8354 2 2.39582187119593 71.72900959079394 -42.800325602246495 1.9857417941057485 0 0 0
8360 3 -1.20210353160704 73.59756683042613 -43.17852928168429 1.9857417941057547 0 0 0
8622 3 -1.20210353160704 72.04248845049571 -40.846346462823625 1.9857417941057542 0 0 0