LAMMPS data file via write_data, version 19 Nov 2024, timestep = 0, units =.1 metal
              
28796 atoms             
3 atom types            
              
0 237.520453066678 xlo xhi           
-142.512271840007 47.5040906133356 ylo yhi           
0 7.89 zlo zhi           
              
Masses              
              
1 87.62             
2 47.867             
3 15.999             
              
Atoms # charge            
              
1 2 2.39714048549662 223.5929862517193 -142.35678017410504 1.9725 0 0 0      
2 3 -1.20143617019393 223.5929862517193 -142.35678017410504 0.0 0 0 0      
3 2 2.39714048549662 227.46137701732 -141.58310202098488 1.9725 0 0 0      
4 3 -1.20143617019393 225.52718163451965 -141.96994109754496 1.9725 0 0 0      
5 3 -1.20143617019393 227.46137701732 -141.58310202098488 0.0 0 0 0      
6 2 2.39714048549662 231.32976778292067 -140.80942386786475 1.9725 0 0 0      
7 3 -1.20143617019393 229.39557240012036 -141.19626294442483 1.9725 0 0 0      
8 3 -1.20143617019393 231.32976778292067 -140.80942386786475 0.0 0 0 0      
9 1 1.19618687736173 233.6508022422811 -142.35678017410504 0.0 0 0 0      
10 2 2.39714048549662 235.19815854852132 -140.03574571474462 1.9725 0 0 0      
11 3 -1.20143617019393 233.263963165721 -140.4225847913047 1.9725 0 0 0      
12 3 -1.20143617019393 235.58499762508143 -141.96994109754496 1.9725 0 0 0      
13 3 -1.20143617019393 235.19815854852132 -140.03574571474462 0.0 0 0 0      
14 1 1.19618687736173 237.51919300788177 -141.58310202098488 0.0 0 0 0      
15 3 -1.20143617019393 237.1323539313217 -139.64890663818454 1.9725 0 0 0      
16 2 2.39714048549662 203.4773542705958 -142.35678017410504 1.9725 0 0 0      
17 3 -1.20143617019393 203.4773542705958 -142.35678017410504 0.0 0 0 0      
18 2 2.39714048549662 207.3457450361965 -141.58310202098488 1.9725 0 0 0      
19 3 -1.20143617019393 205.41154965339612 -141.96994109754496 1.9725 0 0 0      
20 3 -1.20143617019393 207.3457450361965 -141.58310202098488 0.0 0 0 0      
21 2 2.39714048549662 211.2141358017972 -140.80942386786475 1.9725 0 0 0      
22 3 -1.20143617019393 209.27994041899683 -141.19626294442483 1.9725 0 0 0      
23 3 -1.20143617019393 211.2141358017972 -140.80942386786475 0.0 0 0 0      
24 1 1.19618687736173 213.53517026115756 -142.35678017410504 0.0 0 0 0      
25 2 2.39714048549662 215.08252656739785 -140.03574571474462 1.9725 0 0 0      
26 3 -1.20143617019393 213.1483311845975 -140.4225847913047 1.9725 0 0 0      
27 3 -1.20143617019393 215.46936564395787 -141.96994109754496 1.9725 0 0 0      
28 3 -1.20143617019393 215.08252656739785 -140.03574571474462 0.0 0 0 0      
29 1 1.19618687736173 217.4035610267582 -141.58310202098488 0.0 0 0 0      
30 2 2.39714048549662 218.95091733299853 -139.2620675616245 1.9725 0 0 0      
31 3 -1.20143617019393 217.0167219501982 -139.64890663818454 1.9725 0 0 0      
32 3 -1.20143617019393 219.33775640955852 -141.19626294442483 1.9725 0 0 0      
33 3 -1.20143617019393 218.95091733299853 -139.2620675616245 0.0 0 0 0      
34 1 1.19618687736173 221.2719517923589 -140.80942386786475 0.0 0 0 0      
35 2 2.39714048549662 222.8193080985992 -138.48838940850436 1.9725 0 0 0      
36 3 -1.20143617019393 220.88511271579887 -138.8752284850644 1.9725 0 0 0      
37 3 -1.20143617019393 223.20614717515923 -140.4225847913047 1.9725 0 0 0      
38 3 -1.20143617019393 222.8193080985992 -138.48838940850436 0.0 0 0 0      
39 1 1.19618687736173 225.1403425579596 -140.03574571474462 0.0 0 0 0      
40 2 2.39714048549662 226.6876988641999 -137.7147112553842 1.9725 0 0 0      
41 3 -1.20143617019393 224.75350348139955 -138.10155033194428 1.9725 0 0 0      
42 3 -1.20143617019393 227.0745379407599 -139.64890663818454 1.9725 0 0 0      
43 3 -1.20143617019393 226.6876988641999 -137.7147112553842 0.0 0 0 0      
44 1 1.19618687736173 229.00873332356025 -139.2620675616245 0.0 0 0 0      
45 2 2.39714048549662 230.55608962980057 -136.94103310226407 1.9725 0 0 0      
46 3 -1.20143617019393 228.62189424700023 -137.32787217882415 1.9725 0 0 0      
47 3 -1.20143617019393 230.9429287063606 -138.8752284850644 1.9725 0 0 0      
48 3 -1.20143617019393 230.55608962980057 -136.94103310226407 0.0 0 0 0      
49 1 1.19618687736173 232.87712408916093 -138.48838940850436 0.0 0 0 0      
50 2 2.39714048549662 234.42448039540125 -136.16735494914394 1.9725 0 0 0      
51 3 -1.20143617019393 232.4902850126009 -136.55419402570402 1.9725 0 0 0      
52 3 -1.20143617019393 234.81131947196127 -138.10155033194428 1.9725 0 0 0      
53 3 -1.20143617019393 234.42448039540125 -136.16735494914394 0.0 0 0 0      
54 1 1.19618687736173 236.7455148547616 -137.7147112553842 0.0 0 0 0      
55 3 -1.20143617019393 236.3586757782016 -135.78051587258386 1.9725 0 0 0      
56 2 2.39714048549662 183.36172228947223 -142.35678017410504 1.9725 0 0 0      
57 3 -1.20143617019393 183.36172228947223 -142.35678017410504 0.0 0 0 0      
58 2 2.39714048549662 187.23011305507293 -141.58310202098488 1.9725 0 0 0      
59 3 -1.20143617019393 185.2959176722726 -141.96994109754496 1.9725 0 0 0      
60 3 -1.20143617019393 187.23011305507293 -141.58310202098488 0.0 0 0 0      
61 2 2.39714048549662 191.0985038206736 -140.80942386786475 1.9725 0 0 0      
62 3 -1.20143617019393 189.1643084378732 -141.19626294442483 1.9725 0 0 0      
63 3 -1.20143617019393 191.0985038206736 -140.80942386786475 0.0 0 0 0      
64 1 1.19618687736173 193.419538280034 -142.35678017410504 0.0 0 0 0      
65 2 2.39714048549662 194.9668945862743 -140.03574571474462 1.9725 0 0 0      
66 3 -1.20143617019393 193.03269920347395 -140.4225847913047 1.9725 0 0 0      
67 3 -1.20143617019393 195.35373366283432 -141.96994109754496 1.9725 0 0 0      
68 3 -1.20143617019393 194.9668945862743 -140.03574571474462 0.0 0 0 0      
69 1 1.19618687736173 197.28792904563463 -141.58310202098488 0.0 0 0 0      
70 2 2.39714048549662 198.83528535187497 -139.2620675616245 1.9725 0 0 0      
71 3 -1.20143617019393 196.90108996907463 -139.64890663818454 1.9725 0 0 0      
72 3 -1.20143617019393 199.222124428435 -141.19626294442483 1.9725 0 0 0      
73 3 -1.20143617019393 198.83528535187497 -139.2620675616245 0.0 0 0 0      
74 1 1.19618687736173 201.1563198112353 -140.80942386786475 0.0 0 0 0      
75 2 2.39714048549662 202.70367611747565 -138.48838940850436 1.9725 0 0 0      
76 3 -1.20143617019393 200.7694807346753 -138.8752284850644 1.9725 0 0 0      
77 3 -1.20143617019393 203.09051519403567 -140.4225847913047 1.9725 0 0 0      
78 3 -1.20143617019393 202.70367611747565 -138.48838940850436 0.0 0 0 0      
79 1 1.19618687736173 205.024710576836 -140.03574571474462 0.0 0 0 0      
80 2 2.39714048549662 206.57206688307636 -137.7147112553842 1.9725 0 0 0      
81 3 -1.20143617019393 204.637871500276 -138.10155033194428 1.9725 0 0 0      
82 3 -1.20143617019393 206.95890595963635 -139.64890663818454 1.9725 0 0 0      
83 3 -1.20143617019393 206.57206688307636 -137.7147112553842 0.0 0 0 0      
84 1 1.19618687736173 208.8931013424367 -139.2620675616245 0.0 0 0 0      
85 2 2.39714048549662 210.440457648677 -136.94103310226407 1.9725 0 0 0      
86 3 -1.20143617019393 208.50626226587667 -137.32787217882415 1.9725 0 0 0      
87 3 -1.20143617019393 210.82729672523703 -138.8752284850644 1.9725 0 0 0      
88 3 -1.20143617019393 210.440457648677 -136.94103310226407 0.0 0 0 0      
89 1 1.19618687736173 212.76149210803737 -138.48838940850436 0.0 0 0 0      
90 2 2.39714048549662 214.3088484142777 -136.16735494914394 1.9725 0 0 0      
91 3 -1.20143617019393 212.37465303147732 -136.55419402570402 1.9725 0 0 0      
92 3 -1.20143617019393 214.6956874908377 -138.10155033194428 1.9725 0 0 0      
93 3 -1.20143617019393 214.3088484142777 -136.16735494914394 0.0 0 0 0      
94 1 1.19618687736173 216.62988287363805 -137.7147112553842 0.0 0 0 0      
95 2 2.39714048549662 218.1772391798784 -135.3936767960238 1.9725 0 0 0      
96 3 -1.20143617019393 216.24304379707803 -135.78051587258386 1.9725 0 0 0      
97 3 -1.20143617019393 218.5640782564384 -137.32787217882415 1.9725 0 0 0      
98 3 -1.20143617019393 218.1772391798784 -135.3936767960238 0.0 0 0 0      
99 1 1.19618687736173 220.49827363923876 -136.94103310226407 0.0 0 0 0      
100 2 2.39714048549662 222.04562994547905 -134.61999864290368 1.9725 0 0 0      
101 3 -1.20143617019393 220.1114345626787 -135.00683771946373 1.9725 0 0 0      
102 3 -1.20143617019393 222.43246902203907 -136.55419402570402 1.9725 0 0 0      
103 3 -1.20143617019393 222.04562994547905 -134.61999864290368 0.0 0 0 0      
104 1 1.19618687736173 224.3666644048394 -136.16735494914394 0.0 0 0 0      
105 2 2.39714048549662 225.91402071107973 -133.84632048978352 1.9725 0 0 0      
106 3 -1.20143617019393 223.9798253282794 -134.2331595663436 1.9725 0 0 0      
107 3 -1.20143617019393 226.30085978763972 -135.78051587258386 1.9725 0 0 0      
108 3 -1.20143617019393 225.91402071107973 -133.84632048978352 0.0 0 0 0      
109 1 1.19618687736173 228.2350551704401 -135.3936767960238 0.0 0 0 0      
110 2 2.39714048549662 229.7824114766804 -133.0726423366634 1.9725 0 0 0      
111 3 -1.20143617019393 227.84821609388007 -133.45948141322347 1.9725 0 0 0      
112 3 -1.20143617019393 230.16925055324043 -135.00683771946373 1.9725 0 0 0      
113 3 -1.20143617019393 229.7824114766804 -133.0726423366634 0.0 0 0 0      
114 1 1.19618687736173 232.1034459360408 -134.61999864290368 0.0 0 0 0      
115 2 2.39714048549662 233.6508022422811 -132.29896418354326 1.9725 0 0 0      
116 3 -1.20143617019393 231.71660685948075 -132.68580326010334 1.9725 0 0 0      
117 3 -1.20143617019393 234.0376413188411 -134.2331595663436 1.9725 0 0 0      
118 3 -1.20143617019393 233.6508022422811 -132.29896418354326 0.0 0 0 0      
119 1 1.19618687736173 235.97183670164145 -133.84632048978352 0.0 0 0 0      
120 2 2.39714048549662 237.51919300788177 -131.52528603042313 1.9725 0 0 0      
121 3 -1.20143617019393 235.58499762508143 -131.91212510698318 1.9725 0 0 0      
122 3 -1.20143617019393 237.51919300788177 -131.52528603042313 0.0 0 0 0      
123 2 2.39714048549662 163.2460903083487 -142.35678017410504 1.9725 0 0 0      
124 3 -1.20143617019393 163.2460903083487 -142.35678017410504 0.0 0 0 0      
125 2 2.39714048549662 167.11448107394938 -141.58310202098488 1.9725 0 0 0      
126 3 -1.20143617019393 165.18028569114904 -141.96994109754496 1.9725 0 0 0      
127 3 -1.20143617019393 167.11448107394938 -141.58310202098488 0.0 0 0 0      
128 2 2.39714048549662 170.98287183955006 -140.80942386786475 1.9725 0 0 0      
129 3 -1.20143617019393 169.04867645674972 -141.19626294442483 1.9725 0 0 0      
130 3 -1.20143617019393 170.98287183955006 -140.80942386786475 0.0 0 0 0      
131 1 1.19618687736173 173.30390629891042 -142.35678017410504 0.0 0 0 0      
132 2 2.39714048549662 174.85126260515074 -140.03574571474462 1.9725 0 0 0      
133 3 -1.20143617019393 172.9170672223504 -140.4225847913047 1.9725 0 0 0      
134 3 -1.20143617019393 175.23810168171082 -141.96994109754496 1.9725 0 0 0      
135 3 -1.20143617019393 174.85126260515074 -140.03574571474462 0.0 0 0 0      
136 1 1.19618687736173 177.17229706451116 -141.58310202098488 0.0 0 0 0      
137 2 2.39714048549662 178.71965337075142 -139.2620675616245 1.9725 0 0 0      
138 3 -1.20143617019393 176.78545798795108 -139.64890663818454 1.9725 0 0 0      
139 3 -1.20143617019393 179.1064924473115 -141.19626294442483 1.9725 0 0 0      
140 3 -1.20143617019393 178.71965337075142 -139.2620675616245 0.0 0 0 0      
141 1 1.19618687736173 181.04068783011184 -140.80942386786475 0.0 0 0 0      
142 2 2.39714048549662 182.5880441363521 -138.48838940850436 1.9725 0 0 0      
143 3 -1.20143617019393 180.65384875355176 -138.8752284850644 1.9725 0 0 0      
144 3 -1.20143617019393 182.97488321291215 -140.4225847913047 1.9725 0 0 0      
145 3 -1.20143617019393 182.5880441363521 -138.48838940850436 0.0 0 0 0      
146 1 1.19618687736173 184.9090785957125 -140.03574571474462 0.0 0 0 0      
147 2 2.39714048549662 186.4564349019528 -137.7147112553842 1.9725 0 0 0      
148 3 -1.20143617019393 184.52223951915244 -138.10155033194428 1.9725 0 0 0      
149 3 -1.20143617019393 186.84327397851283 -139.64890663818454 1.9725 0 0 0      
150 3 -1.20143617019393 186.4564349019528 -137.7147112553842 0.0 0 0 0      
151 1 1.19618687736173 188.77746936131317 -139.2620675616245 0.0 0 0 0      
152 2 2.39714048549662 190.32482566755343 -136.94103310226407 1.9725 0 0 0      
153 3 -1.20143617019393 188.39063028475312 -137.32787217882415 1.9725 0 0 0      
154 3 -1.20143617019393 190.71166474411348 -138.8752284850644 1.9725 0 0 0      
155 3 -1.20143617019393 190.32482566755343 -136.94103310226407 0.0 0 0 0      
156 1 1.19618687736173 192.64586012691387 -138.48838940850436 0.0 0 0 0      
157 2 2.39714048549662 194.1932164331541 -136.16735494914394 1.9725 0 0 0      
158 3 -1.20143617019393 192.2590210503538 -136.55419402570402 1.9725 0 0 0      
159 3 -1.20143617019393 194.5800555097142 -138.10155033194428 1.9725 0 0 0      
160 3 -1.20143617019393 194.1932164331541 -136.16735494914394 0.0 0 0 0      
161 1 1.19618687736173 196.51425089251453 -137.7147112553842 0.0 0 0 0      
162 2 2.39714048549662 198.0616071987548 -135.3936767960238 1.9725 0 0 0      
163 3 -1.20143617019393 196.12741181595447 -135.78051587258386 1.9725 0 0 0      
164 3 -1.20143617019393 198.4484462753149 -137.32787217882415 1.9725 0 0 0      
165 3 -1.20143617019393 198.0616071987548 -135.3936767960238 0.0 0 0 0      
166 1 1.19618687736173 200.38264165811523 -136.94103310226407 0.0 0 0 0      
167 2 2.39714048549662 201.9299979643555 -134.61999864290368 1.9725 0 0 0      
168 3 -1.20143617019393 199.99580258155515 -135.00683771946373 1.9725 0 0 0      
169 3 -1.20143617019393 202.3168370409156 -136.55419402570402 1.9725 0 0 0      
170 3 -1.20143617019393 201.9299979643555 -134.61999864290368 0.0 0 0 0      
171 1 1.19618687736173 204.2510324237159 -136.16735494914394 0.0 0 0 0      
172 2 2.39714048549662 205.79838872995617 -133.84632048978352 1.9725 0 0 0      
173 3 -1.20143617019393 203.86419334715583 -134.2331595663436 1.9725 0 0 0      
174 3 -1.20143617019393 206.18522780651625 -135.78051587258386 1.9725 0 0 0      
175 3 -1.20143617019393 205.79838872995617 -133.84632048978352 0.0 0 0 0      
176 1 1.19618687736173 208.1194231893166 -135.3936767960238 0.0 0 0 0      
177 2 2.39714048549662 209.66677949555685 -133.0726423366634 1.9725 0 0 0      
178 3 -1.20143617019393 207.7325841127565 -133.45948141322347 1.9725 0 0 0      
179 3 -1.20143617019393 210.05361857211693 -135.00683771946373 1.9725 0 0 0      
180 3 -1.20143617019393 209.66677949555685 -133.0726423366634 0.0 0 0 0      
181 1 1.19618687736173 211.98781395491727 -134.61999864290368 0.0 0 0 0      
182 2 2.39714048549662 213.53517026115756 -132.29896418354326 1.9725 0 0 0      
183 3 -1.20143617019393 211.6009748783572 -132.68580326010334 1.9725 0 0 0      
184 3 -1.20143617019393 213.9220093377176 -134.2331595663436 1.9725 0 0 0      
185 3 -1.20143617019393 213.53517026115756 -132.29896418354326 0.0 0 0 0      
186 1 1.19618687736173 215.85620472051795 -133.84632048978352 0.0 0 0 0      
187 2 2.39714048549662 217.4035610267582 -131.52528603042313 1.9725 0 0 0      
188 3 -1.20143617019393 215.46936564395787 -131.91212510698318 1.9725 0 0 0      
189 3 -1.20143617019393 217.7904001033183 -133.45948141322347 1.9725 0 0 0      
190 3 -1.20143617019393 217.4035610267582 -131.52528603042313 0.0 0 0 0      
191 1 1.19618687736173 219.72459548611863 -133.0726423366634 0.0 0 0 0      
192 2 2.39714048549662 221.2719517923589 -130.751607877303 1.9725 0 0 0      
193 3 -1.20143617019393 219.33775640955852 -131.13844695386305 1.9725 0 0 0      
194 3 -1.20143617019393 221.65879086891897 -132.68580326010334 1.9725 0 0 0      
195 3 -1.20143617019393 221.2719517923589 -130.751607877303 0.0 0 0 0      
196 1 1.19618687736173 223.5929862517193 -132.29896418354326 0.0 0 0 0      
197 2 2.39714048549662 225.1403425579596 -129.97792972418284 1.9725 0 0 0      
198 3 -1.20143617019393 223.20614717515923 -130.36476880074292 1.9725 0 0 0      
199 3 -1.20143617019393 225.52718163451965 -131.91212510698318 1.9725 0 0 0      
200 3 -1.20143617019393 225.1403425579596 -129.97792972418284 0.0 0 0 0      
201 1 1.19618687736173 227.46137701732 -131.52528603042313 0.0 0 0 0      
202 2 2.39714048549662 229.00873332356025 -129.2042515710627 1.9725 0 0 0      
203 3 -1.20143617019393 227.0745379407599 -129.5910906476228 1.9725 0 0 0      
204 3 -1.20143617019393 229.39557240012036 -131.13844695386305 1.9725 0 0 0      
205 3 -1.20143617019393 229.00873332356025 -129.2042515710627 0.0 0 0 0      
206 1 1.19618687736173 231.32976778292067 -130.751607877303 0.0 0 0 0      
207 2 2.39714048549662 232.87712408916093 -128.43057341794258 1.9725 0 0 0      
208 3 -1.20143617019393 230.9429287063606 -128.81741249450266 1.9725 0 0 0      
209 3 -1.20143617019393 233.263963165721 -130.36476880074292 1.9725 0 0 0      
210 3 -1.20143617019393 232.87712408916093 -128.43057341794258 0.0 0 0 0      
211 1 1.19618687736173 235.19815854852132 -129.97792972418284 0.0 0 0 0      
212 2 2.39714048549662 236.7455148547616 -127.65689526482244 1.9725 0 0 0      
213 3 -1.20143617019393 234.81131947196127 -128.0437343413825 1.9725 0 0 0      
214 3 -1.20143617019393 237.1323539313217 -129.5910906476228 1.9725 0 0 0      
215 3 -1.20143617019393 236.7455148547616 -127.65689526482244 0.0 0 0 0      
216 2 2.39714048549662 143.13045832722514 -142.35678017410504 1.9725 0 0 0      
217 3 -1.20143617019393 143.13045832722514 -142.35678017410504 0.0 0 0 0      
218 2 2.39714048549662 146.99884909282582 -141.58310202098488 1.9725 0 0 0      
219 3 -1.20143617019393 145.06465371002548 -141.96994109754496 1.9725 0 0 0      
220 3 -1.20143617019393 146.99884909282582 -141.58310202098488 0.0 0 0 0      
221 2 2.39714048549662 150.8672398584265 -140.80942386786475 1.9725 0 0 0      
222 3 -1.20143617019393 148.93304447562616 -141.19626294442483 1.9725 0 0 0      
223 3 -1.20143617019393 150.8672398584265 -140.80942386786475 0.0 0 0 0      
224 1 1.19618687736173 153.18827431778698 -142.35678017410504 0.0 0 0 0      
225 2 2.39714048549662 154.73563062402718 -140.03574571474462 1.9725 0 0 0      
226 3 -1.20143617019393 152.80143524122684 -140.4225847913047 1.9725 0 0 0      
227 3 -1.20143617019393 155.12246970058732 -141.96994109754496 1.9725 0 0 0      
228 3 -1.20143617019393 154.73563062402718 -140.03574571474462 0.0 0 0 0      
229 1 1.19618687736173 157.0566650833876 -141.58310202098488 0.0 0 0 0      
230 2 2.39714048549662 158.60402138962786 -139.2620675616245 1.9725 0 0 0      
231 3 -1.20143617019393 156.66982600682752 -139.64890663818454 1.9725 0 0 0      
232 3 -1.20143617019393 158.990860466188 -141.19626294442483 1.9725 0 0 0      
233 3 -1.20143617019393 158.60402138962786 -139.2620675616245 0.0 0 0 0      
234 1 1.19618687736173 160.92505584898834 -140.80942386786475 0.0 0 0 0      
235 2 2.39714048549662 162.47241215522854 -138.48838940850436 1.9725 0 0 0      
236 3 -1.20143617019393 160.5382167724282 -138.8752284850644 1.9725 0 0 0      
237 3 -1.20143617019393 162.85925123178868 -140.4225847913047 1.9725 0 0 0      
238 3 -1.20143617019393 162.47241215522854 -138.48838940850436 0.0 0 0 0      
239 1 1.19618687736173 164.79344661458902 -140.03574571474462 0.0 0 0 0      
240 2 2.39714048549662 166.34080292082922 -137.7147112553842 1.9725 0 0 0      
241 3 -1.20143617019393 164.40660753802888 -138.10155033194428 1.9725 0 0 0      
242 3 -1.20143617019393 166.72764199738936 -139.64890663818454 1.9725 0 0 0      
243 3 -1.20143617019393 166.34080292082922 -137.7147112553842 0.0 0 0 0      
244 1 1.19618687736173 168.6618373801897 -139.2620675616245 0.0 0 0 0      
245 2 2.39714048549662 170.2091936864299 -136.94103310226407 1.9725 0 0 0      
246 3 -1.20143617019393 168.27499830362956 -137.32787217882415 1.9725 0 0 0      
247 3 -1.20143617019393 170.59603276298998 -138.8752284850644 1.9725 0 0 0      
248 3 -1.20143617019393 170.2091936864299 -136.94103310226407 0.0 0 0 0      
249 1 1.19618687736173 172.53022814579032 -138.48838940850436 0.0 0 0 0      
250 2 2.39714048549662 174.07758445203058 -136.16735494914394 1.9725 0 0 0      
251 3 -1.20143617019393 172.14338906923024 -136.55419402570402 1.9725 0 0 0      
252 3 -1.20143617019393 174.46442352859071 -138.10155033194428 1.9725 0 0 0      
253 3 -1.20143617019393 174.07758445203058 -136.16735494914394 0.0 0 0 0      
254 1 1.19618687736173 176.39861891139105 -137.7147112553842 0.0 0 0 0      
255 2 2.39714048549662 177.94597521763126 -135.3936767960238 1.9725 0 0 0      
256 3 -1.20143617019393 176.01177983483092 -135.78051587258386 1.9725 0 0 0      
257 3 -1.20143617019393 178.3328142941914 -137.32787217882415 1.9725 0 0 0      
258 3 -1.20143617019393 177.94597521763126 -135.3936767960238 0.0 0 0 0      
259 1 1.19618687736173 180.26700967699173 -136.94103310226407 0.0 0 0 0      
260 2 2.39714048549662 181.81436598323197 -134.61999864290368 1.9725 0 0 0      
261 3 -1.20143617019393 179.8801706004316 -135.00683771946373 1.9725 0 0 0      
262 3 -1.20143617019393 182.20120505979207 -136.55419402570402 1.9725 0 0 0      
263 3 -1.20143617019393 181.81436598323197 -134.61999864290368 0.0 0 0 0      
264 1 1.19618687736173 184.1354004425924 -136.16735494914394 0.0 0 0 0      
265 2 2.39714048549662 185.68275674883265 -133.84632048978352 1.9725 0 0 0      
266 3 -1.20143617019393 183.74856136603228 -134.2331595663436 1.9725 0 0 0      
267 3 -1.20143617019393 186.06959582539275 -135.78051587258386 1.9725 0 0 0      
268 3 -1.20143617019393 185.68275674883265 -133.84632048978352 0.0 0 0 0      
269 1 1.19618687736173 188.00379120819304 -135.3936767960238 0.0 0 0 0      
270 2 2.39714048549662 189.5511475144333 -133.0726423366634 1.9725 0 0 0      
271 3 -1.20143617019393 187.61695213163296 -133.45948141322347 1.9725 0 0 0      
272 3 -1.20143617019393 189.93798659099335 -135.00683771946373 1.9725 0 0 0      
273 3 -1.20143617019393 189.5511475144333 -133.0726423366634 0.0 0 0 0      
274 1 1.19618687736173 191.87218197379377 -134.61999864290368 0.0 0 0 0      
275 2 2.39714048549662 193.419538280034 -132.29896418354326 1.9725 0 0 0      
276 3 -1.20143617019393 191.48534289723364 -132.68580326010334 1.9725 0 0 0      
277 3 -1.20143617019393 193.8063773565941 -134.2331595663436 1.9725 0 0 0      
278 3 -1.20143617019393 193.419538280034 -132.29896418354326 0.0 0 0 0      
279 1 1.19618687736173 195.74057273939445 -133.84632048978352 0.0 0 0 0      
280 2 2.39714048549662 197.28792904563463 -131.52528603042313 1.9725 0 0 0      
281 3 -1.20143617019393 195.35373366283432 -131.91212510698318 1.9725 0 0 0      
282 3 -1.20143617019393 197.6747681221948 -133.45948141322347 1.9725 0 0 0      
283 3 -1.20143617019393 197.28792904563463 -131.52528603042313 0.0 0 0 0      
284 1 1.19618687736173 199.60896350499516 -133.0726423366634 0.0 0 0 0      
285 2 2.39714048549662 201.1563198112353 -130.751607877303 1.9725 0 0 0      
286 3 -1.20143617019393 199.222124428435 -131.13844695386305 1.9725 0 0 0      
287 3 -1.20143617019393 201.54315888779547 -132.68580326010334 1.9725 0 0 0      
288 3 -1.20143617019393 201.1563198112353 -130.751607877303 0.0 0 0 0      
289 1 1.19618687736173 203.4773542705958 -132.29896418354326 0.0 0 0 0      
290 2 2.39714048549662 205.024710576836 -129.97792972418284 1.9725 0 0 0      
291 3 -1.20143617019393 203.09051519403567 -130.36476880074292 1.9725 0 0 0      
292 3 -1.20143617019393 205.41154965339612 -131.91212510698318 1.9725 0 0 0      
293 3 -1.20143617019393 205.024710576836 -129.97792972418284 0.0 0 0 0      
294 1 1.19618687736173 207.3457450361965 -131.52528603042313 0.0 0 0 0      
295 2 2.39714048549662 208.8931013424367 -129.2042515710627 1.9725 0 0 0      
296 3 -1.20143617019393 206.95890595963635 -129.5910906476228 1.9725 0 0 0      
297 3 -1.20143617019393 209.27994041899683 -131.13844695386305 1.9725 0 0 0      
298 3 -1.20143617019393 208.8931013424367 -129.2042515710627 0.0 0 0 0      
299 1 1.19618687736173 211.2141358017972 -130.751607877303 0.0 0 0 0      
300 2 2.39714048549662 212.76149210803737 -128.43057341794258 1.9725 0 0 0      
301 3 -1.20143617019393 210.82729672523703 -128.81741249450266 1.9725 0 0 0      
302 3 -1.20143617019393 213.1483311845975 -130.36476880074292 1.9725 0 0 0      
303 3 -1.20143617019393 212.76149210803737 -128.43057341794258 0.0 0 0 0      
304 1 1.19618687736173 215.08252656739785 -129.97792972418284 0.0 0 0 0      
305 2 2.39714048549662 216.62988287363805 -127.65689526482244 1.9725 0 0 0      
306 3 -1.20143617019393 214.6956874908377 -128.0437343413825 1.9725 0 0 0      
307 3 -1.20143617019393 217.0167219501982 -129.5910906476228 1.9725 0 0 0      
308 3 -1.20143617019393 216.62988287363805 -127.65689526482244 0.0 0 0 0      
309 1 1.19618687736173 218.95091733299853 -129.2042515710627 0.0 0 0 0      
310 2 2.39714048549662 220.49827363923876 -126.88321711170232 1.9725 0 0 0      
311 3 -1.20143617019393 218.5640782564384 -127.27005618826236 1.9725 0 0 0      
312 3 -1.20143617019393 220.88511271579887 -128.81741249450266 1.9725 0 0 0      
313 3 -1.20143617019393 220.49827363923876 -126.88321711170232 0.0 0 0 0      
314 1 1.19618687736173 222.8193080985992 -128.43057341794258 0.0 0 0 0      
315 2 2.39714048549662 224.3666644048394 -126.10953895858216 1.9725 0 0 0      
316 3 -1.20143617019393 222.43246902203907 -126.49637803514224 1.9725 0 0 0      
317 3 -1.20143617019393 224.75350348139955 -128.0437343413825 1.9725 0 0 0      
318 3 -1.20143617019393 224.3666644048394 -126.10953895858216 0.0 0 0 0      
319 1 1.19618687736173 226.6876988641999 -127.65689526482244 0.0 0 0 0      
320 2 2.39714048549662 228.2350551704401 -125.33586080546203 1.9725 0 0 0      
321 3 -1.20143617019393 226.30085978763972 -125.72269988202213 1.9725 0 0 0      
322 3 -1.20143617019393 228.62189424700023 -127.27005618826236 1.9725 0 0 0      
323 3 -1.20143617019393 228.2350551704401 -125.33586080546203 0.0 0 0 0      
324 1 1.19618687736173 230.55608962980057 -126.88321711170232 0.0 0 0 0      
325 2 2.39714048549662 232.1034459360408 -124.5621826523419 1.9725 0 0 0      
326 3 -1.20143617019393 230.16925055324043 -124.94902172890195 1.9725 0 0 0      
327 3 -1.20143617019393 232.4902850126009 -126.49637803514224 1.9725 0 0 0      
328 3 -1.20143617019393 232.1034459360408 -124.5621826523419 0.0 0 0 0      
329 1 1.19618687736173 234.42448039540125 -126.10953895858218 0.0 0 0 0      
330 2 2.39714048549662 235.97183670164145 -123.78850449922176 1.9725 0 0 0      
331 3 -1.20143617019393 234.0376413188411 -124.17534357578184 1.9725 0 0 0      
332 3 -1.20143617019393 236.3586757782016 -125.72269988202213 1.9725 0 0 0      
333 3 -1.20143617019393 235.97183670164145 -123.78850449922176 0.0 0 0 0      
334 2 2.39714048549662 123.01482634610164 -142.35678017410504 1.9725 0 0 0      
335 3 -1.20143617019393 123.01482634610164 -142.35678017410504 0.0 0 0 0      
336 2 2.39714048549662 126.88321711170232 -141.58310202098488 1.9725 0 0 0      
337 3 -1.20143617019393 124.94902172890198 -141.96994109754496 1.9725 0 0 0      
338 3 -1.20143617019393 126.88321711170232 -141.58310202098488 0.0 0 0 0      
339 2 2.39714048549662 130.751607877303 -140.80942386786475 1.9725 0 0 0      
340 3 -1.20143617019393 128.81741249450266 -141.19626294442483 1.9725 0 0 0      
341 3 -1.20143617019393 130.751607877303 -140.80942386786475 0.0 0 0 0      
342 1 1.19618687736173 133.07264233666342 -142.35678017410504 0.0 0 0 0      
343 2 2.39714048549662 134.61999864290368 -140.03574571474462 1.9725 0 0 0      
344 3 -1.20143617019393 132.68580326010334 -140.4225847913047 1.9725 0 0 0      
345 3 -1.20143617019393 135.00683771946376 -141.96994109754496 1.9725 0 0 0      
346 3 -1.20143617019393 134.61999864290368 -140.03574571474462 0.0 0 0 0      
347 1 1.19618687736173 136.9410331022641 -141.58310202098488 0.0 0 0 0      
348 2 2.39714048549662 138.48838940850436 -139.2620675616245 1.9725 0 0 0      
349 3 -1.20143617019393 136.55419402570402 -139.64890663818454 1.9725 0 0 0      
350 3 -1.20143617019393 138.87522848506444 -141.19626294442483 1.9725 0 0 0      
351 3 -1.20143617019393 138.48838940850436 -139.2620675616245 0.0 0 0 0      
352 1 1.19618687736173 140.80942386786478 -140.80942386786475 0.0 0 0 0      
353 2 2.39714048549662 142.35678017410504 -138.48838940850436 1.9725 0 0 0      
354 3 -1.20143617019393 140.4225847913047 -138.8752284850644 1.9725 0 0 0      
355 3 -1.20143617019393 142.74361925066512 -140.4225847913047 1.9725 0 0 0      
356 3 -1.20143617019393 142.35678017410504 -138.48838940850436 0.0 0 0 0      
357 1 1.19618687736173 144.67781463346546 -140.03574571474462 0.0 0 0 0      
358 2 2.39714048549662 146.22517093970572 -137.7147112553842 1.9725 0 0 0      
359 3 -1.20143617019393 144.29097555690538 -138.10155033194428 1.9725 0 0 0      
360 3 -1.20143617019393 146.6120100162658 -139.64890663818454 1.9725 0 0 0      
361 3 -1.20143617019393 146.22517093970572 -137.7147112553842 0.0 0 0 0      
362 1 1.19618687736173 148.54620539906614 -139.2620675616245 0.0 0 0 0      
363 2 2.39714048549662 150.0935617053064 -136.94103310226407 1.9725 0 0 0      
364 3 -1.20143617019393 148.15936632250606 -137.32787217882415 1.9725 0 0 0      
365 3 -1.20143617019393 150.48040078186648 -138.8752284850644 1.9725 0 0 0      
366 3 -1.20143617019393 150.0935617053064 -136.94103310226407 0.0 0 0 0      
367 1 1.19618687736173 152.41459616466682 -138.48838940850436 0.0 0 0 0      
368 2 2.39714048549662 153.96195247090708 -136.16735494914394 1.9725 0 0 0      
369 3 -1.20143617019393 152.02775708810674 -136.55419402570402 1.9725 0 0 0      
370 3 -1.20143617019393 154.34879154746716 -138.10155033194428 1.9725 0 0 0      
371 3 -1.20143617019393 153.96195247090708 -136.16735494914394 0.0 0 0 0      
372 1 1.19618687736173 156.2829869302675 -137.7147112553842 0.0 0 0 0      