LAMMPS data file via write_data, version 19 Nov 2024, timestep = 0, units =.1 metal
              
26412 atoms             
3 atom types            
              
0 48.4805312335468 xlo xhi           
-142.512271840007 142.512271840007 ylo yhi           
0 23.67 zlo zhi           
              
Masses              
              
1 87.62             
2 47.867             
3 15.999             
              
Atoms # charge            
              
1 1 1.2 47.96804549344843 -74.50634019838566 19.725 0 0 0      
2 2 2.4 46.42068918720816 -70.32696610098151 1.9724999999999968 0 0 0      
3 3 -1.2 44.48649380440781 -70.71380517754156 1.9724999999999968 0 0 0      
4 3 -1.2 46.42068918720816 -70.32696610098151 0.0 0 0 0      
5 3 -1.2 48.354884570008494 -69.94012702442143 1.9724999999999968 0 0 0      
6 3 -1.2 46.03385011064809 -74.11950112182564 21.6975 0 0 0      
7 2 2.4 26.305057206084623 -70.32696610098151 1.9724999999999968 0 0 0      
8 3 -1.2 24.370861823284287 -70.71380517754156 1.9724999999999968 0 0 0      
9 3 -1.2 26.305057206084623 -70.32696610098151 0.0 0 0 0      
10 2 2.4 30.173447971685302 -69.55328794786135 1.9724999999999968 0 0 0      
11 3 -1.2 28.23925258888497 -69.94012702442143 1.9724999999999968 0 0 0      
12 3 -1.2 30.173447971685302 -69.55328794786135 0.0 0 0 0      
13 2 2.4 34.041838737285985 -68.77960979474122 1.9724999999999968 0 0 0      
14 3 -1.2 32.107643354485646 -69.1664488713013 1.9724999999999968 0 0 0      
15 3 -1.2 34.428677813846065 -70.71380517754156 1.9724999999999968 0 0 0      
16 3 -1.2 34.041838737285985 -68.77960979474122 0.0 0 0 0      
17 1 1.2 36.3628731966464 -70.32696610098151 0.0 0 0 0      
18 2 2.4 37.910229502886665 -68.00593164162109 1.9724999999999968 0 0 0      
19 3 -1.2 35.976034120086325 -68.39277071818117 1.9724999999999968 0 0 0      
20 3 -1.2 38.29706857944673 -69.94012702442143 1.9724999999999968 0 0 0      
21 3 -1.2 37.910229502886665 -68.00593164162109 0.0 0 0 0      
22 1 1.2 40.23126396224709 -69.55328794786135 0.0 0 0 0      
23 2 2.4 41.778620268487344 -67.23225348850096 1.9724999999999968 0 0 0      
24 3 -1.2 39.844424885687005 -67.61909256506101 1.9724999999999968 0 0 0      
25 3 -1.2 42.165459345047424 -69.1664488713013 1.9724999999999968 0 0 0      
26 3 -1.2 41.778620268487344 -67.23225348850096 0.0 0 0 0      
27 1 1.2 44.09965472784776 -68.77960979474122 0.0 0 0 0      
28 2 2.4 45.64701103408802 -66.45857533538083 1.9724999999999968 0 0 0      
29 3 -1.2 43.71281565128768 -66.84541441194088 1.9724999999999968 0 0 0      
30 3 -1.2 46.03385011064809 -68.39277071818117 1.9724999999999968 0 0 0      
31 3 -1.2 45.64701103408802 -66.45857533538083 0.0 0 0 0      
32 1 1.2 47.96804549344843 -68.00593164162109 0.0 0 0 0      
33 3 -1.2 47.58120641688837 -66.07173625882075 1.9724999999999968 0 0 0      
34 1 1.2 44.09965472784776 -73.73266204526561 19.725 0 0 0      
35 2 2.4 6.189425224961084 -70.32696610098148 1.9724999999999968 0 0 0      
36 3 -1.2 4.255229842160745 -70.71380517754153 1.9724999999999968 0 0 0      
37 3 -1.2 6.189425224961084 -70.32696610098148 0.0 0 0 0      
38 2 2.4 10.057815990561778 -69.55328794786132 1.9724999999999968 0 0 0      
39 3 -1.2 8.123620607761438 -69.9401270244214 1.9724999999999968 0 0 0      
40 3 -1.2 10.057815990561778 -69.55328794786132 0.0 0 0 0      
41 2 2.4 13.926206756162443 -68.77960979474119 1.9724999999999968 0 0 0      
42 3 -1.2 11.992011373362104 -69.16644887130127 1.9724999999999968 0 0 0      
43 3 -1.2 14.313045832722509 -70.71380517754153 1.9724999999999968 0 0 0      
44 3 -1.2 13.926206756162443 -68.77960979474119 0.0 0 0 0      
45 1 1.2 16.24724121552285 -70.32696610098148 0.0 0 0 0      
46 2 2.4 17.794597521763137 -68.00593164162106 1.9724999999999968 0 0 0      
47 3 -1.2 15.860402138962783 -68.39277071818114 1.9724999999999968 0 0 0      
48 3 -1.2 18.181436598323188 -69.9401270244214 1.9724999999999968 0 0 0      
49 3 -1.2 17.794597521763137 -68.00593164162106 0.0 0 0 0      
50 1 1.2 20.115631981123528 -69.55328794786132 0.0 0 0 0      
51 2 2.4 21.662988287363817 -67.23225348850093 1.9724999999999968 0 0 0      
52 3 -1.2 19.72879290456348 -67.61909256506098 1.9724999999999968 0 0 0      
53 3 -1.2 22.049827363923868 -69.16644887130127 1.9724999999999968 0 0 0      
54 3 -1.2 21.662988287363817 -67.23225348850093 0.0 0 0 0      
55 1 1.2 23.984022746724207 -68.77960979474119 0.0 0 0 0      
56 2 2.4 25.531379052964496 -66.4585753353808 1.9724999999999968 0 0 0      
57 3 -1.2 23.59718367016416 -66.84541441194085 1.9724999999999968 0 0 0      
58 3 -1.2 25.918218129524547 -68.39277071818114 1.9724999999999968 0 0 0      
59 3 -1.2 25.531379052964496 -66.4585753353808 0.0 0 0 0      
60 1 1.2 27.852413512324887 -68.00593164162106 0.0 0 0 0      
61 2 2.4 29.399769818565176 -65.68489718226064 1.9724999999999968 0 0 0      
62 3 -1.2 27.46557443576484 -66.07173625882072 1.9724999999999968 0 0 0      
63 3 -1.2 29.786608895125227 -67.61909256506098 1.9724999999999968 0 0 0      
64 3 -1.2 29.399769818565176 -65.68489718226064 0.0 0 0 0      
65 1 1.2 31.720804277925566 -67.23225348850093 0.0 0 0 0      
66 2 2.4 33.268160584165855 -64.91121902914051 1.9724999999999968 0 0 0      
67 3 -1.2 31.333965201365515 -65.29805810570059 1.9724999999999968 0 0 0      
68 3 -1.2 33.654999660725906 -66.84541441194085 1.9724999999999968 0 0 0      
69 3 -1.2 33.268160584165855 -64.91121902914051 0.0 0 0 0      
70 1 1.2 35.589195043526246 -66.4585753353808 0.0 0 0 0      
71 2 2.4 37.136551349766535 -64.13754087602038 1.9724999999999968 0 0 0      
72 3 -1.2 35.202355966966195 -64.52437995258046 1.9724999999999968 0 0 0      
73 3 -1.2 37.523390426326586 -66.07173625882072 1.9724999999999968 0 0 0      
74 3 -1.2 37.136551349766535 -64.13754087602038 0.0 0 0 0      
75 1 1.2 39.457585809126925 -65.68489718226064 0.0 0 0 0      
76 2 2.4 41.004942115367214 -63.36386272290025 1.9724999999999968 0 0 0      
77 3 -1.2 39.07074673256688 -63.7507017994603 1.9724999999999968 0 0 0      
78 3 -1.2 41.39178119192727 -65.29805810570059 1.9724999999999968 0 0 0      
79 3 -1.2 41.004942115367214 -63.36386272290025 0.0 0 0 0      
80 1 1.2 43.325976574727605 -64.91121902914051 0.0 0 0 0      
81 2 2.4 44.87333288096789 -62.59018456978012 1.9724999999999968 0 0 0      
82 3 -1.2 42.939137498167554 -62.97702364634017 1.9724999999999968 0 0 0      
83 3 -1.2 45.260171957527945 -64.52437995258046 1.9724999999999968 0 0 0      
84 3 -1.2 44.87333288096789 -62.59018456978012 0.0 0 0 0      
85 1 1.2 47.19436734032829 -64.13754087602038 0.0 0 0 0      
86 3 -1.2 46.80752826376823 -62.20334549322004 1.9724999999999968 0 0 0      
87 1 1.2 0.0 -69.55328794786135 0.0 0 0 0      
88 2 2.4 1.5473563062402746 -67.23225348850096 1.9724999999999968 0 0 0      
89 3 -1.2 1.93419538280034 -69.1664488713013 1.9724999999999968 0 0 0      
90 3 -1.2 1.5473563062402746 -67.23225348850096 0.0 0 0 0      
91 1 1.2 3.86839076560068 -68.77960979474122 0.0 0 0 0      
92 2 2.4 5.415747071840954 -66.45857533538083 1.9724999999999968 0 0 0      
93 3 -1.2 3.4815516890406144 -66.84541441194088 1.9724999999999968 0 0 0      
94 3 -1.2 5.802586148401019 -68.39277071818117 1.9724999999999968 0 0 0      
95 3 -1.2 5.415747071840954 -66.45857533538083 0.0 0 0 0      
96 1 1.2 7.736781531201359 -68.00593164162109 0.0 0 0 0      
97 2 2.4 9.284137837441634 -65.68489718226067 1.9724999999999968 0 0 0      
98 3 -1.2 7.349942454641294 -66.07173625882075 1.9724999999999968 0 0 0      
99 3 -1.2 9.6709769140017 -67.61909256506101 1.9724999999999968 0 0 0      
100 3 -1.2 9.284137837441634 -65.68489718226067 0.0 0 0 0      
101 1 1.2 11.60517229680204 -67.23225348850096 0.0 0 0 0      
102 2 2.4 13.152528603042311 -64.91121902914054 1.9724999999999968 0 0 0      
103 3 -1.2 11.218333220241972 -65.29805810570062 1.9724999999999968 0 0 0      
104 3 -1.2 13.539367679602378 -66.84541441194088 1.9724999999999968 0 0 0      
105 3 -1.2 13.152528603042311 -64.91121902914054 0.0 0 0 0      
106 1 1.2 15.473563062402718 -66.45857533538083 0.0 0 0 0      
107 2 2.4 17.020919368642993 -64.13754087602041 1.9724999999999968 0 0 0      
108 3 -1.2 15.086723985842651 -64.52437995258049 1.9724999999999968 0 0 0      
109 3 -1.2 17.407758445203058 -66.07173625882075 1.9724999999999968 0 0 0      
110 3 -1.2 17.020919368642993 -64.13754087602041 0.0 0 0 0      
111 1 1.2 19.3419538280034 -65.68489718226067 0.0 0 0 0      
112 2 2.4 20.889310134243672 -63.36386272290028 1.9724999999999968 0 0 0      
113 3 -1.2 18.95511475144333 -63.75070179946033 1.9724999999999968 0 0 0      
114 3 -1.2 21.276149210803737 -65.29805810570062 1.9724999999999968 0 0 0      
115 3 -1.2 20.889310134243672 -63.36386272290028 0.0 0 0 0      
116 1 1.2 23.21034459360408 -64.91121902914054 0.0 0 0 0      
117 2 2.4 24.75770089984435 -62.59018456978015 1.9724999999999968 0 0 0      
118 3 -1.2 22.82350551704401 -62.9770236463402 1.9724999999999968 0 0 0      
119 3 -1.2 25.144539976404417 -64.52437995258049 1.9724999999999968 0 0 0      
120 3 -1.2 24.75770089984435 -62.59018456978015 0.0 0 0 0      
121 1 1.2 27.07873535920476 -64.13754087602041 0.0 0 0 0      
122 2 2.4 28.62609166544503 -61.81650641665999 1.9724999999999968 0 0 0      
123 3 -1.2 26.69189628264469 -62.20334549322007 1.9724999999999968 0 0 0      
124 3 -1.2 29.012930742005096 -63.75070179946033 1.9724999999999968 0 0 0      
125 3 -1.2 28.62609166544503 -61.81650641665999 0.0 0 0 0      
126 1 1.2 30.94712612480544 -63.36386272290028 0.0 0 0 0      
127 2 2.4 32.49448243104571 -61.04282826353986 1.9724999999999968 0 0 0      
128 3 -1.2 30.56028704824537 -61.42966734009994 1.9724999999999968 0 0 0      
129 3 -1.2 32.881321507605776 -62.9770236463402 1.9724999999999968 0 0 0      
130 3 -1.2 32.49448243104571 -61.04282826353986 0.0 0 0 0      
131 1 1.2 34.81551689040612 -62.59018456978015 0.0 0 0 0      
132 2 2.4 36.36287319664639 -60.26915011041973 1.9724999999999968 0 0 0      
133 3 -1.2 34.42867781384605 -60.65598918697981 1.9724999999999968 0 0 0      
134 3 -1.2 36.749712273206455 -62.20334549322007 1.9724999999999968 0 0 0      
135 3 -1.2 36.36287319664639 -60.26915011041973 0.0 0 0 0      
136 1 1.2 38.6839076560068 -61.81650641665999 0.0 0 0 0      
137 2 2.4 40.23126396224707 -59.4954719572996 1.9724999999999968 0 0 0      
138 3 -1.2 38.29706857944673 -59.88231103385965 1.9724999999999968 0 0 0      
139 3 -1.2 40.618103038807135 -61.42966734009994 1.9724999999999968 0 0 0      
140 3 -1.2 40.23126396224707 -59.4954719572996 0.0 0 0 0      
141 1 1.2 42.55229842160748 -61.04282826353986 0.0 0 0 0      
142 2 2.4 44.09965472784775 -58.72179380417947 1.9724999999999968 0 0 0      
143 3 -1.2 42.16545934504741 -59.10863288073952 1.9724999999999968 0 0 0      
144 3 -1.2 44.48649380440781 -60.65598918697981 1.9724999999999968 0 0 0      
145 3 -1.2 44.09965472784775 -58.72179380417947 0.0 0 0 0      
146 1 1.2 46.42068918720816 -60.26915011041973 0.0 0 0 0      
147 2 2.4 47.96804549344843 -57.94811565105931 1.9724999999999968 0 0 0      
148 3 -1.2 46.03385011064809 -58.33495472761939 1.9724999999999968 0 0 0      
149 3 -1.2 48.354884570008494 -59.88231103385965 1.9724999999999968 0 0 0      
150 3 -1.2 47.96804549344843 -57.94811565105931 0.0 0 0 0      
151 2 2.4 0.7736781531201302 -63.36386272290028 1.9724999999999968 0 0 0      
152 3 -1.2 1.1605172296802095 -65.29805810570062 1.9724999999999968 0 0 0      
153 3 -1.2 0.7736781531201302 -63.36386272290028 0.0 0 0 0      
154 1 1.2 3.0947126124805493 -64.91121902914054 0.0 0 0 0      
155 2 2.4 4.64206891872081 -62.59018456978015 1.9724999999999968 0 0 0      
156 3 -1.2 2.70787353592047 -62.9770236463402 1.9724999999999968 0 0 0      
157 3 -1.2 5.028907995280889 -64.52437995258049 1.9724999999999968 0 0 0      
158 3 -1.2 4.64206891872081 -62.59018456978015 0.0 0 0 0      
159 1 1.2 6.963103378081229 -64.13754087602041 0.0 0 0 0      
160 2 2.4 8.510459684321503 -61.81650641665999 1.9724999999999968 0 0 0      
161 3 -1.2 6.576264301521164 -62.20334549322007 1.9724999999999968 0 0 0      
162 3 -1.2 8.897298760881569 -63.75070179946033 1.9724999999999968 0 0 0      
163 3 -1.2 8.510459684321503 -61.81650641665999 0.0 0 0 0      
164 1 1.2 10.831494143681908 -63.36386272290028 0.0 0 0 0      
165 2 2.4 12.378850449922185 -61.04282826353986 1.9724999999999968 0 0 0      
166 3 -1.2 10.444655067121843 -61.42966734009994 1.9724999999999968 0 0 0      
167 3 -1.2 12.765689526482248 -62.9770236463402 1.9724999999999968 0 0 0      
168 3 -1.2 12.378850449922185 -61.04282826353986 0.0 0 0 0      
169 1 1.2 14.699884909282588 -62.59018456978015 0.0 0 0 0      
170 2 2.4 16.247241215522862 -60.26915011041973 1.9724999999999968 0 0 0      
171 3 -1.2 14.313045832722525 -60.65598918697981 1.9724999999999968 0 0 0      
172 3 -1.2 16.634080292082928 -62.20334549322007 1.9724999999999968 0 0 0      
173 3 -1.2 16.247241215522862 -60.26915011041973 0.0 0 0 0      
174 1 1.2 18.568275674883267 -61.81650641665999 0.0 0 0 0      
175 2 2.4 20.115631981123546 -59.4954719572996 1.9724999999999968 0 0 0      
176 3 -1.2 18.1814365983232 -59.88231103385965 1.9724999999999968 0 0 0      
177 3 -1.2 20.502471057683607 -61.42966734009994 1.9724999999999968 0 0 0      
178 3 -1.2 20.115631981123546 -59.4954719572996 0.0 0 0 0      
179 1 1.2 22.436666440483947 -61.04282826353986 0.0 0 0 0      
180 2 2.4 23.98402274672422 -58.72179380417947 1.9724999999999968 0 0 0      
181 3 -1.2 22.04982736392388 -59.10863288073952 1.9724999999999968 0 0 0      
182 3 -1.2 24.370861823284287 -60.65598918697981 1.9724999999999968 0 0 0      
183 3 -1.2 23.98402274672422 -58.72179380417947 0.0 0 0 0      
184 1 1.2 26.305057206084623 -60.26915011041973 0.0 0 0 0      
185 2 2.4 27.8524135123249 -57.94811565105931 1.9724999999999968 0 0 0      
186 3 -1.2 25.91821812952456 -58.33495472761939 1.9724999999999968 0 0 0      
187 3 -1.2 28.23925258888497 -59.88231103385965 1.9724999999999968 0 0 0      
188 3 -1.2 27.8524135123249 -57.94811565105931 0.0 0 0 0      
189 1 1.2 30.173447971685302 -59.4954719572996 0.0 0 0 0      
190 2 2.4 31.72080427792558 -57.17443749793918 1.9724999999999968 0 0 0      
191 3 -1.2 29.78660889512524 -57.56127657449926 1.9724999999999968 0 0 0      
192 3 -1.2 32.107643354485646 -59.10863288073952 1.9724999999999968 0 0 0      
193 3 -1.2 31.72080427792558 -57.17443749793918 0.0 0 0 0      
194 1 1.2 34.041838737285985 -58.72179380417947 0.0 0 0 0      
195 2 2.4 35.58919504352626 -56.400759344819036 1.9724999999999968 0 0 0      
196 3 -1.2 33.65499966072592 -56.78759842137913 1.9724999999999968 0 0 0      
197 3 -1.2 35.976034120086325 -58.33495472761939 1.9724999999999968 0 0 0      
198 3 -1.2 35.58919504352626 -56.400759344819036 0.0 0 0 0      
199 1 1.2 37.910229502886665 -57.94811565105931 0.0 0 0 0      
200 2 2.4 39.45758580912694 -55.62708119169892 1.9724999999999968 0 0 0      
201 3 -1.2 37.5233904263266 -56.013920268259 1.9724999999999968 0 0 0      
202 3 -1.2 39.844424885687005 -57.56127657449926 1.9724999999999968 0 0 0      
203 3 -1.2 39.45758580912694 -55.62708119169892 0.0 0 0 0      
204 1 1.2 41.778620268487344 -57.17443749793918 0.0 0 0 0      
205 2 2.4 43.32597657472762 -54.853403038578776 1.9724999999999968 0 0 0      
206 3 -1.2 41.39178119192728 -55.24024211513884 1.9724999999999968 0 0 0      
207 3 -1.2 43.71281565128768 -56.78759842137913 1.9724999999999968 0 0 0      
208 3 -1.2 43.32597657472762 -54.853403038578776 0.0 0 0 0      
209 1 1.2 45.64701103408802 -56.400759344819036 0.0 0 0 0      
210 2 2.4 47.1943673403283 -54.07972488545863 1.9724999999999968 0 0 0      
211 3 -1.2 45.26017195752796 -54.466563962018725 1.9724999999999968 0 0 0      
212 3 -1.2 47.58120641688837 -56.013920268259 1.9724999999999968 0 0 0      
213 3 -1.2 47.1943673403283 -54.07972488545863 0.0 0 0 0      
214 2 2.4 0.0 -59.4954719572996 1.9724999999999968 0 0 0      
215 3 -1.2 0.3868390765600651 -61.42966734009994 1.9724999999999968 0 0 0      
216 3 -1.2 0.0 -59.4954719572996 0.0 0 0 0      
217 1 1.2 2.321034459360405 -61.04282826353986 0.0 0 0 0      
218 2 2.4 3.86839076560068 -58.72179380417947 1.9724999999999968 0 0 0      
219 3 -1.2 1.93419538280034 -59.10863288073952 1.9724999999999968 0 0 0      
220 3 -1.2 4.255229842160745 -60.65598918697981 1.9724999999999968 0 0 0      
221 3 -1.2 3.86839076560068 -58.72179380417947 0.0 0 0 0      
222 1 1.2 6.189425224961099 -60.26915011041973 0.0 0 0 0      
223 2 2.4 7.736781531201359 -57.94811565105931 1.9724999999999968 0 0 0      
224 3 -1.2 5.802586148401019 -58.33495472761939 1.9724999999999968 0 0 0      
225 3 -1.2 8.123620607761438 -59.88231103385965 1.9724999999999968 0 0 0      
226 3 -1.2 7.736781531201359 -57.94811565105931 0.0 0 0 0      
227 1 1.2 10.057815990561764 -59.4954719572996 0.0 0 0 0      
228 2 2.4 11.60517229680204 -57.17443749793918 1.9724999999999968 0 0 0      
229 3 -1.2 9.6709769140017 -57.56127657449926 1.9724999999999968 0 0 0      
230 3 -1.2 11.992011373362104 -59.10863288073952 1.9724999999999968 0 0 0      
231 3 -1.2 11.60517229680204 -57.17443749793918 0.0 0 0 0      
232 1 1.2 13.926206756162443 -58.72179380417947 0.0 0 0 0      
233 2 2.4 15.473563062402718 -56.400759344819036 1.9724999999999968 0 0 0      
234 3 -1.2 13.539367679602378 -56.78759842137913 1.9724999999999968 0 0 0      
235 3 -1.2 15.860402138962796 -58.33495472761939 1.9724999999999968 0 0 0      
236 3 -1.2 15.473563062402718 -56.400759344819036 0.0 0 0 0      
237 1 1.2 17.794597521763137 -57.94811565105931 0.0 0 0 0      
238 2 2.4 19.3419538280034 -55.62708119169892 1.9724999999999968 0 0 0      
239 3 -1.2 17.407758445203058 -56.013920268259 1.9724999999999968 0 0 0      
240 3 -1.2 19.72879290456348 -57.56127657449926 1.9724999999999968 0 0 0      
241 3 -1.2 19.3419538280034 -55.62708119169892 0.0 0 0 0      
242 1 1.2 21.662988287363817 -57.17443749793918 0.0 0 0 0      
243 2 2.4 23.21034459360408 -54.853403038578776 1.9724999999999968 0 0 0      
244 3 -1.2 21.276149210803737 -55.24024211513884 1.9724999999999968 0 0 0      
245 3 -1.2 23.59718367016416 -56.78759842137913 1.9724999999999968 0 0 0      
246 3 -1.2 23.21034459360408 -54.853403038578776 0.0 0 0 0      
247 1 1.2 25.531379052964496 -56.400759344819036 0.0 0 0 0      
248 2 2.4 27.07873535920476 -54.07972488545863 1.9724999999999968 0 0 0      
249 3 -1.2 25.144539976404417 -54.466563962018725 1.9724999999999968 0 0 0      
250 3 -1.2 27.46557443576484 -56.013920268259 1.9724999999999968 0 0 0      
251 3 -1.2 27.07873535920476 -54.07972488545863 0.0 0 0 0      
252 1 1.2 29.399769818565176 -55.62708119169892 0.0 0 0 0      
253 2 2.4 30.94712612480544 -53.3060467323385 1.9724999999999968 0 0 0      
254 3 -1.2 29.012930742005096 -53.69288580889858 1.9724999999999968 0 0 0      
255 3 -1.2 31.333965201365515 -55.24024211513884 1.9724999999999968 0 0 0      
256 3 -1.2 30.94712612480544 -53.3060467323385 0.0 0 0 0      
257 1 1.2 33.268160584165855 -54.853403038578776 0.0 0 0 0      
258 2 2.4 34.81551689040612 -52.53236857921836 1.9724999999999968 0 0 0      
259 3 -1.2 32.881321507605776 -52.919207655778436 1.9724999999999968 0 0 0      
260 3 -1.2 35.202355966966195 -54.466563962018725 1.9724999999999968 0 0 0      
261 3 -1.2 34.81551689040612 -52.53236857921836 0.0 0 0 0      
262 1 1.2 37.136551349766535 -54.07972488545863 0.0 0 0 0      
263 2 2.4 38.6839076560068 -51.75869042609824 1.9724999999999968 0 0 0      
264 3 -1.2 36.749712273206455 -52.14552950265832 1.9724999999999968 0 0 0      
265 3 -1.2 39.07074673256688 -53.69288580889858 1.9724999999999968 0 0 0      
266 3 -1.2 38.6839076560068 -51.75869042609824 0.0 0 0 0      
267 1 1.2 41.004942115367214 -53.3060467323385 0.0 0 0 0      
268 2 2.4 42.55229842160748 -50.985012272978096 1.9724999999999968 0 0 0      
269 3 -1.2 40.618103038807135 -51.37185134953816 1.9724999999999968 0 0 0      
270 3 -1.2 42.939137498167554 -52.919207655778436 1.9724999999999968 0 0 0      
271 3 -1.2 42.55229842160748 -50.985012272978096 0.0 0 0 0      
272 1 1.2 44.87333288096789 -52.53236857921836 0.0 0 0 0      
273 2 2.4 46.42068918720817 -50.21133411985795 1.9724999999999968 0 0 0      
274 3 -1.2 44.48649380440781 -50.59817319641803 1.9724999999999968 0 0 0      
275 3 -1.2 46.80752826376823 -52.14552950265832 1.9724999999999968 0 0 0      
276 3 -1.2 46.42068918720817 -50.21133411985795 0.0 0 0 0      
277 3 -1.2 48.35488457000851 -49.8244950432979 1.9724999999999968 0 0 0      
278 1 1.2 1.5473563062402746 -57.17443749793918 0.0 0 0 0      
279 2 2.4 3.0947126124805493 -54.853403038578776 1.9724999999999968 0 0 0      
280 3 -1.2 1.1605172296802095 -55.24024211513884 1.9724999999999968 0 0 0      
281 3 -1.2 3.4815516890406144 -56.7875984213791 1.9724999999999968 0 0 0      
282 3 -1.2 3.0947126124805493 -54.853403038578776 0.0 0 0 0      
283 1 1.2 5.415747071840954 -56.400759344819036 0.0 0 0 0      
284 2 2.4 6.963103378081229 -54.07972488545863 1.9724999999999968 0 0 0      
285 3 -1.2 5.028907995280889 -54.466563962018725 1.9724999999999968 0 0 0      
286 3 -1.2 7.349942454641294 -56.01392026825896 1.9724999999999968 0 0 0      
287 3 -1.2 6.963103378081229 -54.07972488545863 0.0 0 0 0      
288 1 1.2 9.284137837441634 -55.62708119169892 0.0 0 0 0      
289 2 2.4 10.831494143681908 -53.3060467323385 1.9724999999999968 0 0 0      
290 3 -1.2 8.897298760881569 -53.69288580889858 1.9724999999999968 0 0 0      
291 3 -1.2 11.218333220241972 -55.24024211513884 1.9724999999999968 0 0 0      
292 3 -1.2 10.831494143681908 -53.3060467323385 0.0 0 0 0      
293 1 1.2 13.152528603042311 -54.85340303857876 0.0 0 0 0      
294 2 2.4 14.699884909282588 -52.53236857921836 1.9724999999999968 0 0 0      
295 3 -1.2 12.765689526482248 -52.919207655778436 1.9724999999999968 0 0 0      
296 3 -1.2 15.086723985842651 -54.4665639620187 1.9724999999999968 0 0 0      
297 3 -1.2 14.699884909282588 -52.53236857921836 0.0 0 0 0      
298 1 1.2 17.020919368642993 -54.07972488545863 0.0 0 0 0      
299 2 2.4 18.568275674883267 -51.75869042609824 1.9724999999999968 0 0 0      
300 3 -1.2 16.634080292082928 -52.14552950265832 1.9724999999999968 0 0 0      
301 3 -1.2 18.95511475144333 -53.69288580889855 1.9724999999999968 0 0 0      
302 3 -1.2 18.568275674883267 -51.75869042609824 0.0 0 0 0      
303 1 1.2 20.889310134243672 -53.30604673233847 0.0 0 0 0      
304 2 2.4 22.436666440483947 -50.985012272978096 1.9724999999999968 0 0 0      
305 3 -1.2 20.502471057683607 -51.37185134953816 1.9724999999999968 0 0 0      
306 3 -1.2 22.82350551704401 -52.91920765577842 1.9724999999999968 0 0 0      
307 3 -1.2 22.436666440483947 -50.985012272978096 0.0 0 0 0      
308 1 1.2 24.75770089984435 -52.53236857921836 0.0 0 0 0      
309 2 2.4 26.305057206084623 -50.21133411985795 1.9724999999999968 0 0 0      
310 3 -1.2 24.370861823284287 -50.59817319641803 1.9724999999999968 0 0 0      
311 3 -1.2 26.69189628264469 -52.14552950265829 1.9724999999999968 0 0 0      
312 3 -1.2 26.305057206084623 -50.21133411985795 0.0 0 0 0      
313 1 1.2 28.62609166544503 -51.75869042609824 0.0 0 0 0      
314 2 2.4 30.173447971685302 -49.43765596673782 1.9724999999999968 0 0 0      
315 3 -1.2 28.23925258888497 -49.8244950432979 1.9724999999999968 0 0 0      
316 3 -1.2 30.56028704824537 -51.37185134953816 1.9724999999999968 0 0 0      
317 3 -1.2 30.173447971685302 -49.43765596673782 0.0 0 0 0      
318 1 1.2 32.49448243104571 -50.98501227297808 0.0 0 0 0      
319 2 2.4 34.041838737285985 -48.66397781361769 1.9724999999999968 0 0 0      
320 3 -1.2 32.107643354485646 -49.05081689017776 1.9724999999999968 0 0 0      
321 3 -1.2 34.42867781384605 -50.59817319641802 1.9724999999999968 0 0 0      
322 3 -1.2 34.041838737285985 -48.66397781361769 0.0 0 0 0      
323 1 1.2 36.36287319664639 -50.21133411985795 0.0 0 0 0      
324 2 2.4 37.910229502886665 -47.89029966049756 1.9724999999999968 0 0 0      
325 3 -1.2 35.976034120086325 -48.27713873705764 1.9724999999999968 0 0 0      
326 3 -1.2 38.29706857944673 -49.82449504329787 1.9724999999999968 0 0 0      
327 3 -1.2 37.910229502886665 -47.89029966049756 0.0 0 0 0      
328 1 1.2 40.23126396224707 -49.43765596673779 0.0 0 0 0      
329 2 2.4 41.778620268487344 -47.11662150737742 1.9724999999999968 0 0 0      
330 3 -1.2 39.844424885687005 -47.50346058393748 1.9724999999999968 0 0 0      
331 3 -1.2 42.16545934504741 -49.05081689017774 1.9724999999999968 0 0 0      
332 3 -1.2 41.778620268487344 -47.11662150737742 0.0 0 0 0      
333 1 1.2 44.09965472784775 -48.66397781361768 0.0 0 0 0      
334 2 2.4 45.64701103408802 -46.34294335425727 1.9724999999999968 0 0 0      
335 3 -1.2 43.71281565128768 -46.72978243081735 1.9724999999999968 0 0 0      
336 3 -1.2 46.03385011064809 -48.2771387370576 1.9724999999999968 0 0 0      
337 3 -1.2 45.64701103408802 -46.34294335425727 0.0 0 0 0      
338 1 1.2 47.96804549344843 -47.89029966049756 0.0 0 0 0      
339 3 -1.2 47.58120641688837 -45.95610427769722 1.9724999999999968 0 0 0      
340 1 1.2 0.7736781531201302 -53.3060467323385 0.0 0 0 0      
341 2 2.4 2.321034459360405 -50.98501227297808 1.9724999999999968 0 0 0      
342 3 -1.2 0.3868390765600651 -51.37185134953816 1.9724999999999968 0 0 0      
343 3 -1.2 2.70787353592047 -52.919207655778436 1.9724999999999968 0 0 0      
344 3 -1.2 2.321034459360405 -50.98501227297808 0.0 0 0 0      
345 1 1.2 4.642068918720824 -52.53236857921836 0.0 0 0 0      
346 2 2.4 6.189425224961099 -50.21133411985795 1.9724999999999968 0 0 0      
347 3 -1.2 4.255229842160759 -50.59817319641802 1.9724999999999968 0 0 0      
348 3 -1.2 6.576264301521164 -52.14552950265832 1.9724999999999968 0 0 0      
349 3 -1.2 6.189425224961099 -50.21133411985795 0.0 0 0 0      
350 1 1.2 8.510459684321503 -51.75869042609824 0.0 0 0 0      
351 2 2.4 10.057815990561764 -49.43765596673779 1.9724999999999968 0 0 0      
352 3 -1.2 8.123620607761424 -49.82449504329787 1.9724999999999968 0 0 0      
353 3 -1.2 10.444655067121843 -51.37185134953816 1.9724999999999968 0 0 0      
354 3 -1.2 10.057815990561764 -49.43765596673779 0.0 0 0 0      
355 1 1.2 12.378850449922185 -50.985012272978096 0.0 0 0 0      
356 2 2.4 13.926206756162458 -48.66397781361768 1.9724999999999968 0 0 0      
357 3 -1.2 11.992011373362104 -49.05081689017774 1.9724999999999968 0 0 0      
358 3 -1.2 14.313045832722525 -50.59817319641803 1.9724999999999968 0 0 0      
359 3 -1.2 13.926206756162458 -48.66397781361768 0.0 0 0 0      
360 1 1.2 16.247241215522862 -50.21133411985795 0.0 0 0 0      
361 2 2.4 17.794597521763137 -47.89029966049756 1.9724999999999968 0 0 0      
362 3 -1.2 15.860402138962796 -48.2771387370576 1.9724999999999968 0 0 0      
363 3 -1.2 18.1814365983232 -49.8244950432979 1.9724999999999968 0 0 0      
364 3 -1.2 17.794597521763137 -47.89029966049756 0.0 0 0 0      
365 1 1.2 20.115631981123546 -49.43765596673782 0.0 0 0 0      
366 2 2.4 21.662988287363817 -47.1166215073774 1.9724999999999968 0 0 0      
367 3 -1.2 19.72879290456348 -47.50346058393748 1.9724999999999968 0 0 0      
368 3 -1.2 22.04982736392388 -49.05081689017776 1.9724999999999968 0 0 0      
369 3 -1.2 21.662988287363817 -47.1166215073774 0.0 0 0 0      
370 1 1.2 23.98402274672422 -48.66397781361769 0.0 0 0 0      
371 2 2.4 25.531379052964496 -46.34294335425727 1.9724999999999968 0 0 0      
372 3 -1.2 23.59718367016416 -46.72978243081734 1.9724999999999968 0 0 0      
373 3 -1.2 25.91821812952456 -48.27713873705764 1.9724999999999968 0 0 0      
374 3 -1.2 25.531379052964496 -46.34294335425727 0.0 0 0 0      
375 1 1.2 27.8524135123249 -47.89029966049756 0.0 0 0 0      
376 2 2.4 29.399769818565176 -45.569265201137114 1.9724999999999968 0 0 0      
377 3 -1.2 27.46557443576484 -45.95610427769719 1.9724999999999968 0 0 0      
378 3 -1.2 29.78660889512524 -47.50346058393748 1.9724999999999968 0 0 0      
379 3 -1.2 29.399769818565176 -45.569265201137114 0.0 0 0 0      
380 1 1.2 31.72080427792558 -47.11662150737742 0.0 0 0 0      
381 2 2.4 33.268160584165855 -44.795587048017 1.9724999999999968 0 0 0      
382 3 -1.2 31.333965201365515 -45.18242612457706 1.9724999999999968 0 0 0      
383 3 -1.2 33.65499966072592 -46.72978243081735 1.9724999999999968 0 0 0      
384 3 -1.2 33.268160584165855 -44.795587048017 0.0 0 0 0      
385 1 1.2 35.58919504352626 -46.34294335425727 0.0 0 0 0      
386 2 2.4 37.136551349766535 -44.02190889489688 1.9724999999999968 0 0 0      
387 3 -1.2 35.202355966966195 -44.40874797145692 1.9724999999999968 0 0 0      
388 3 -1.2 37.5233904263266 -45.95610427769722 1.9724999999999968 0 0 0      
389 3 -1.2 37.136551349766535 -44.02190889489688 0.0 0 0 0      
390 1 1.2 39.45758580912694 -45.56926520113714 0.0 0 0 0      
391 2 2.4 41.004942115367214 -43.24823074177672 1.9724999999999968 0 0 0      
392 3 -1.2 39.07074673256688 -43.6350698183368 1.9724999999999968 0 0 0      
393 3 -1.2 41.39178119192728 -45.18242612457708 1.9724999999999968 0 0 0      
394 3 -1.2 41.004942115367214 -43.24823074177672 0.0 0 0 0      
395 1 1.2 43.32597657472762 -44.795587048017 0.0 0 0 0      
396 2 2.4 44.87333288096789 -42.47455258865659 1.9724999999999968 0 0 0      
397 3 -1.2 42.939137498167554 -42.86139166521666 1.9724999999999968 0 0 0      
398 3 -1.2 45.26017195752796 -44.40874797145696 1.9724999999999968 0 0 0      
399 3 -1.2 44.87333288096789 -42.47455258865659 0.0 0 0 0      
400 1 1.2 47.1943673403283 -44.02190889489688 0.0 0 0 0      
401 3 -1.2 46.80752826376823 -42.087713512096514 1.9724999999999968 0 0 0      
402 1 1.2 0.0 -49.43765596673779 0.0 0 0 0      
403 2 2.4 1.5473563062402746 -47.1166215073774 1.9724999999999968 0 0 0      
404 3 -1.2 1.93419538280034 -49.05081689017774 1.9724999999999968 0 0 0      
405 3 -1.2 1.5473563062402746 -47.1166215073774 0.0 0 0 0      
406 1 1.2 3.86839076560068 -48.66397781361768 0.0 0 0 0      
407 2 2.4 5.415747071840954 -46.34294335425727 1.9724999999999968 0 0 0      