LAMMPS data file via write_data, version 19 Nov 2024, timestep = 0, units =.1 metal
              
13934 atoms             
3 atom types            
              
0 237.520453066678 xlo xhi           
-47.5040906133356 47.5040906133356 ylo yhi           
0 7.89 zlo zhi           
              
Masses              
              
1 87.62             
2 47.867             
3 15.999             
              
Atoms # charge            
              
1 2 2.39582187119593 236.7455148547616 24.061768579675118 1.9725 0 0 0      
2 3 -1.20210353160704 236.7455148547616 24.061768579675118 0.0 0 0 0      
3 2 2.39582187119593 216.62988287363805 24.061768579675118 1.9725 0 0 0      
4 3 -1.20210353160704 216.62988287363805 24.061768579675118 0.0 0 0 0      
5 2 2.39582187119593 220.49827363923876 24.835446732795248 1.9725 0 0 0      
6 3 -1.20210353160704 218.5640782564384 24.44860765623517 1.9725 0 0 0      
7 3 -1.20210353160704 220.49827363923876 24.835446732795248 0.0 0 0 0      
8 2 2.39582187119593 224.36666440483947 25.609124885915378 1.9725 0 0 0      
9 3 -1.20210353160704 222.43246902203907 25.2222858093553 1.9725 0 0 0      
10 3 -1.20210353160704 224.36666440483947 25.609124885915378 0.0 0 0 0      
11 1 1.19442724458204 226.6876988641999 24.061768579675118 0.0 0 0 0      
12 2 2.39582187119593 228.2350551704401 26.382803039035508 1.9725 0 0 0      
13 3 -1.20210353160704 226.30085978763972 25.995963962475457 1.9725 0 0 0      
14 3 -1.20210353160704 228.62189424700023 24.44860765623517 1.9725 0 0 0      
15 3 -1.20210353160704 228.2350551704401 26.382803039035508 0.0 0 0 0      
16 1 1.19442724458204 230.55608962980057 24.835446732795248 0.0 0 0 0      
17 2 2.39582187119593 232.1034459360408 27.15648119215564 1.9725 0 0 0      
18 3 -1.20210353160704 230.16925055324043 26.769642115595587 1.9725 0 0 0      
19 3 -1.20210353160704 232.4902850126009 25.2222858093553 1.9725 0 0 0      
20 3 -1.20210353160704 232.1034459360408 27.15648119215564 0.0 0 0 0      
21 1 1.19442724458204 234.42448039540125 25.609124885915378 0.0 0 0 0      
22 2 2.39582187119593 235.97183670164145 27.930159345275797 1.9725 0 0 0      
23 3 -1.20210353160704 234.0376413188411 27.543320268715718 1.9725 0 0 0      
24 3 -1.20210353160704 236.3586757782016 25.995963962475457 1.9725 0 0 0      
25 3 -1.20210353160704 235.97183670164145 27.930159345275797 0.0 0 0 0      
26 2 2.39582187119593 196.51425089251453 24.061768579675118 1.9725 0 0 0      
27 3 -1.20210353160704 196.51425089251453 24.061768579675118 0.0 0 0 0      
28 2 2.39582187119593 200.38264165811523 24.835446732795248 1.9725 0 0 0      
29 3 -1.20210353160704 198.4484462753149 24.44860765623517 1.9725 0 0 0      
30 3 -1.20210353160704 200.38264165811523 24.835446732795248 0.0 0 0 0      
31 2 2.39582187119593 204.2510324237159 25.609124885915378 1.9725 0 0 0      
32 3 -1.20210353160704 202.3168370409156 25.2222858093553 1.9725 0 0 0      
33 3 -1.20210353160704 204.2510324237159 25.609124885915378 0.0 0 0 0      
34 1 1.19442724458204 206.57206688307636 24.061768579675118 0.0 0 0 0      
35 2 2.39582187119593 208.1194231893166 26.382803039035508 1.9725 0 0 0      
36 3 -1.20210353160704 206.18522780651625 25.995963962475457 1.9725 0 0 0      
37 3 -1.20210353160704 208.50626226587667 24.44860765623517 1.9725 0 0 0      
38 3 -1.20210353160704 208.1194231893166 26.382803039035508 0.0 0 0 0      
39 1 1.19442724458204 210.440457648677 24.835446732795248 0.0 0 0 0      
40 2 2.39582187119593 211.98781395491727 27.15648119215564 1.9725 0 0 0      
41 3 -1.20210353160704 210.05361857211693 26.769642115595587 1.9725 0 0 0      
42 3 -1.20210353160704 212.37465303147732 25.2222858093553 1.9725 0 0 0      
43 3 -1.20210353160704 211.98781395491727 27.15648119215564 0.0 0 0 0      
44 1 1.19442724458204 214.3088484142777 25.609124885915378 0.0 0 0 0      
45 2 2.39582187119593 215.85620472051795 27.930159345275797 1.9725 0 0 0      
46 3 -1.20210353160704 213.9220093377176 27.543320268715718 1.9725 0 0 0      
47 3 -1.20210353160704 216.24304379707803 25.995963962475457 1.9725 0 0 0      
48 3 -1.20210353160704 215.85620472051795 27.930159345275797 0.0 0 0 0      
49 1 1.19442724458204 218.1772391798784 26.382803039035508 0.0 0 0 0      
50 2 2.39582187119593 219.72459548611863 28.703837498395927 1.9725 0 0 0      
51 3 -1.20210353160704 217.7904001033183 28.316998421835848 1.9725 0 0 0      
52 3 -1.20210353160704 220.1114345626787 26.769642115595587 1.9725 0 0 0      
53 3 -1.20210353160704 219.72459548611863 28.703837498395927 0.0 0 0 0      
54 1 1.19442724458204 222.04562994547905 27.15648119215564 0.0 0 0 0      
55 2 2.39582187119593 223.59298625171937 29.477515651516057 1.9725 0 0 0      
56 3 -1.20210353160704 221.65879086891897 29.090676574955978 1.9725 0 0 0      
57 3 -1.20210353160704 223.9798253282794 27.543320268715718 1.9725 0 0 0      
58 3 -1.20210353160704 223.59298625171937 29.477515651516057 0.0 0 0 0      
59 1 1.19442724458204 225.91402071107973 27.930159345275797 0.0 0 0 0      
60 2 2.39582187119593 227.46137701732 30.251193804636188 1.9725 0 0 0      
61 3 -1.20210353160704 225.52718163451965 29.864354728076137 1.9725 0 0 0      
62 3 -1.20210353160704 227.84821609388007 28.316998421835848 1.9725 0 0 0      
63 3 -1.20210353160704 227.46137701732 30.251193804636188 0.0 0 0 0      
64 1 1.19442724458204 229.7824114766804 28.703837498395927 0.0 0 0 0      
65 2 2.39582187119593 231.32976778292067 31.024871957756318 1.9725 0 0 0      
66 3 -1.20210353160704 229.39557240012036 30.638032881196267 1.9725 0 0 0      
67 3 -1.20210353160704 231.71660685948075 29.090676574955978 1.9725 0 0 0      
68 3 -1.20210353160704 231.32976778292067 31.024871957756318 0.0 0 0 0      
69 1 1.19442724458204 233.6508022422811 29.477515651516057 0.0 0 0 0      
70 2 2.39582187119593 235.19815854852132 31.798550110876477 1.9725 0 0 0      
71 3 -1.20210353160704 233.263963165721 31.411711034316397 1.9725 0 0 0      
72 3 -1.20210353160704 235.58499762508143 29.864354728076137 1.9725 0 0 0      
73 3 -1.20210353160704 235.19815854852132 31.798550110876477 0.0 0 0 0      
74 1 1.19442724458204 237.51919300788177 30.251193804636188 0.0 0 0 0      
75 3 -1.20210353160704 237.1323539313217 32.18538918743653 1.9725 0 0 0      
76 2 2.39582187119593 176.39861891139105 24.061768579675118 1.9725 0 0 0      
77 3 -1.20210353160704 176.39861891139105 24.061768579675118 0.0 0 0 0      
78 2 2.39582187119593 180.26700967699173 24.835446732795248 1.9725 0 0 0      
79 3 -1.20210353160704 178.3328142941914 24.44860765623517 1.9725 0 0 0      
80 3 -1.20210353160704 180.26700967699173 24.835446732795248 0.0 0 0 0      
81 2 2.39582187119593 184.1354004425924 25.609124885915378 1.9725 0 0 0      
82 3 -1.20210353160704 182.20120505979207 25.2222858093553 1.9725 0 0 0      
83 3 -1.20210353160704 184.1354004425924 25.609124885915378 0.0 0 0 0      
84 1 1.19442724458204 186.4564349019528 24.061768579675118 0.0 0 0 0      
85 2 2.39582187119593 188.0037912081931 26.382803039035508 1.9725 0 0 0      
86 3 -1.20210353160704 186.06959582539275 25.995963962475457 1.9725 0 0 0      
87 3 -1.20210353160704 188.39063028475312 24.44860765623517 1.9725 0 0 0      
88 3 -1.20210353160704 188.0037912081931 26.382803039035508 0.0 0 0 0      
89 1 1.19442724458204 190.32482566755343 24.835446732795248 0.0 0 0 0      
90 2 2.39582187119593 191.87218197379377 27.15648119215564 1.9725 0 0 0      
91 3 -1.20210353160704 189.93798659099343 26.769642115595587 1.9725 0 0 0      
92 3 -1.20210353160704 192.2590210503538 25.2222858093553 1.9725 0 0 0      
93 3 -1.20210353160704 191.87218197379377 27.15648119215564 0.0 0 0 0      
94 1 1.19442724458204 194.1932164331541 25.609124885915378 0.0 0 0 0      
95 2 2.39582187119593 195.74057273939445 27.930159345275797 1.9725 0 0 0      
96 3 -1.20210353160704 193.8063773565941 27.543320268715718 1.9725 0 0 0      
97 3 -1.20210353160704 196.12741181595447 25.995963962475457 1.9725 0 0 0      
98 3 -1.20210353160704 195.74057273939445 27.930159345275797 0.0 0 0 0      
99 1 1.19442724458204 198.0616071987548 26.382803039035508 0.0 0 0 0      
100 2 2.39582187119593 199.60896350499516 28.703837498395927 1.9725 0 0 0      
101 3 -1.20210353160704 197.6747681221948 28.316998421835848 1.9725 0 0 0      
102 3 -1.20210353160704 199.99580258155515 26.769642115595587 1.9725 0 0 0      
103 3 -1.20210353160704 199.60896350499516 28.703837498395927 0.0 0 0 0      
104 1 1.19442724458204 201.9299979643555 27.15648119215564 0.0 0 0 0      
105 2 2.39582187119593 203.4773542705958 29.477515651516057 1.9725 0 0 0      
106 3 -1.20210353160704 201.54315888779547 29.090676574955978 1.9725 0 0 0      
107 3 -1.20210353160704 203.86419334715583 27.543320268715718 1.9725 0 0 0      
108 3 -1.20210353160704 203.4773542705958 29.477515651516057 0.0 0 0 0      
109 1 1.19442724458204 205.79838872995617 27.930159345275797 0.0 0 0 0      
110 2 2.39582187119593 207.3457450361965 30.251193804636188 1.9725 0 0 0      
111 3 -1.20210353160704 205.41154965339612 29.864354728076137 1.9725 0 0 0      
112 3 -1.20210353160704 207.7325841127565 28.316998421835848 1.9725 0 0 0      
113 3 -1.20210353160704 207.3457450361965 30.251193804636188 0.0 0 0 0      
114 1 1.19442724458204 209.66677949555685 28.703837498395927 0.0 0 0 0      
115 2 2.39582187119593 211.2141358017972 31.024871957756318 1.9725 0 0 0      
116 3 -1.20210353160704 209.27994041899683 30.638032881196267 1.9725 0 0 0      
117 3 -1.20210353160704 211.6009748783572 29.090676574955978 1.9725 0 0 0      
118 3 -1.20210353160704 211.2141358017972 31.024871957756318 0.0 0 0 0      
119 1 1.19442724458204 213.53517026115756 29.477515651516057 0.0 0 0 0      
120 2 2.39582187119593 215.08252656739785 31.798550110876477 1.9725 0 0 0      
121 3 -1.20210353160704 213.1483311845975 31.411711034316397 1.9725 0 0 0      
122 3 -1.20210353160704 215.46936564395787 29.864354728076137 1.9725 0 0 0      
123 3 -1.20210353160704 215.08252656739785 31.798550110876477 0.0 0 0 0      
124 1 1.19442724458204 217.4035610267582 30.251193804636188 0.0 0 0 0      
125 2 2.39582187119593 218.95091733299853 32.57222826399661 1.9725 0 0 0      
126 3 -1.20210353160704 217.0167219501982 32.18538918743653 1.9725 0 0 0      
127 3 -1.20210353160704 219.33775640955852 30.638032881196267 1.9725 0 0 0      
128 3 -1.20210353160704 218.95091733299853 32.57222826399661 0.0 0 0 0      
129 1 1.19442724458204 221.2719517923589 31.024871957756318 0.0 0 0 0      
130 2 2.39582187119593 222.8193080985992 33.34590641711674 1.9725 0 0 0      
131 3 -1.20210353160704 220.88511271579887 32.95906734055666 1.9725 0 0 0      
132 3 -1.20210353160704 223.20614717515923 31.411711034316397 1.9725 0 0 0      
133 3 -1.20210353160704 222.8193080985992 33.34590641711674 0.0 0 0 0      
134 1 1.19442724458204 225.1403425579596 31.798550110876477 0.0 0 0 0      
135 2 2.39582187119593 226.6876988641999 34.11958457023687 1.9725 0 0 0      
136 3 -1.20210353160704 224.75350348139955 33.732745493676816 1.9725 0 0 0      
137 3 -1.20210353160704 227.0745379407599 32.18538918743653 1.9725 0 0 0      
138 3 -1.20210353160704 226.6876988641999 34.11958457023687 0.0 0 0 0      
139 1 1.19442724458204 229.00873332356025 32.57222826399661 0.0 0 0 0      
140 2 2.39582187119593 230.55608962980057 34.893262723357 1.9725 0 0 0      
141 3 -1.20210353160704 228.62189424700023 34.50642364679695 1.9725 0 0 0      
142 3 -1.20210353160704 230.9429287063606 32.95906734055666 1.9725 0 0 0      
143 3 -1.20210353160704 230.55608962980057 34.893262723357 0.0 0 0 0      
144 1 1.19442724458204 232.87712408916093 33.34590641711674 0.0 0 0 0      
145 2 2.39582187119593 234.42448039540125 35.666940876477156 1.9725 0 0 0      
146 3 -1.20210353160704 232.4902850126009 35.28010179991708 1.9725 0 0 0      
147 3 -1.20210353160704 234.81131947196127 33.732745493676816 1.9725 0 0 0      
148 3 -1.20210353160704 234.42448039540125 35.666940876477156 0.0 0 0 0      
149 1 1.19442724458204 236.7455148547616 34.11958457023687 0.0 0 0 0      
150 3 -1.20210353160704 236.3586757782016 36.05377995303721 1.9725 0 0 0      
151 2 2.39582187119593 156.2829869302675 24.061768579675118 1.9725 0 0 0      
152 3 -1.20210353160704 156.2829869302675 24.061768579675118 0.0 0 0 0      
153 2 2.39582187119593 160.15137769586818 24.835446732795248 1.9725 0 0 0      
154 3 -1.20210353160704 158.21718231306784 24.44860765623517 1.9725 0 0 0      
155 3 -1.20210353160704 160.15137769586818 24.835446732795248 0.0 0 0 0      
156 2 2.39582187119593 164.01976846146886 25.609124885915378 1.9725 0 0 0      
157 3 -1.20210353160704 162.08557307866852 25.2222858093553 1.9725 0 0 0      
158 3 -1.20210353160704 164.01976846146886 25.609124885915378 0.0 0 0 0      
159 1 1.19442724458204 166.34080292082922 24.061768579675118 0.0 0 0 0      
160 2 2.39582187119593 167.88815922706954 26.382803039035508 1.9725 0 0 0      
161 3 -1.20210353160704 165.9539638442692 25.995963962475457 1.9725 0 0 0      
162 3 -1.20210353160704 168.27499830362956 24.448607656235197 1.9725 0 0 0      
163 3 -1.20210353160704 167.88815922706954 26.382803039035508 0.0 0 0 0      
164 1 1.19442724458204 170.2091936864299 24.835446732795248 0.0 0 0 0      
165 2 2.39582187119593 171.75654999267016 27.15648119215564 1.9725 0 0 0      
166 3 -1.20210353160704 169.82235460986982 26.76964211559556 1.9725 0 0 0      
167 3 -1.20210353160704 172.14338906923024 25.2222858093553 1.9725 0 0 0      
168 3 -1.20210353160704 171.75654999267016 27.15648119215564 0.0 0 0 0      
169 1 1.19442724458204 174.07758445203058 25.609124885915378 0.0 0 0 0      
170 2 2.39582187119593 175.6249407582709 27.930159345275797 1.9725 0 0 0      
171 3 -1.20210353160704 173.69074537547056 27.543320268715718 1.9725 0 0 0      
172 3 -1.20210353160704 176.01177983483092 25.995963962475457 1.9725 0 0 0      
173 3 -1.20210353160704 175.6249407582709 27.930159345275797 0.0 0 0 0      
174 1 1.19442724458204 177.94597521763126 26.382803039035537 0.0 0 0 0      
175 2 2.39582187119593 179.49333152387155 28.703837498395927 1.9725 0 0 0      
176 3 -1.20210353160704 177.55913614107124 28.316998421835848 1.9725 0 0 0      
177 3 -1.20210353160704 179.8801706004316 26.769642115595587 1.9725 0 0 0      
178 3 -1.20210353160704 179.49333152387155 28.703837498395927 0.0 0 0 0      
179 1 1.19442724458204 181.81436598323197 27.156481192155667 0.0 0 0 0      
180 2 2.39582187119593 183.36172228947223 29.477515651516057 1.9725 0 0 0      
181 3 -1.20210353160704 181.42752690667191 29.090676574955978 1.9725 0 0 0      
182 3 -1.20210353160704 183.74856136603228 27.543320268715718 1.9725 0 0 0      
183 3 -1.20210353160704 183.36172228947223 29.477515651516057 0.0 0 0 0      
184 1 1.19442724458204 185.68275674883265 27.930159345275797 0.0 0 0 0      
185 2 2.39582187119593 187.23011305507293 30.251193804636188 1.9725 0 0 0      
186 3 -1.20210353160704 185.2959176722726 29.864354728076137 1.9725 0 0 0      
187 3 -1.20210353160704 187.61695213163296 28.316998421835876 1.9725 0 0 0      
188 3 -1.20210353160704 187.23011305507293 30.251193804636188 0.0 0 0 0      
189 1 1.19442724458204 189.5511475144333 28.703837498395927 0.0 0 0 0      
190 2 2.39582187119593 191.0985038206736 31.024871957756318 1.9725 0 0 0      
191 3 -1.20210353160704 189.16430843787327 30.638032881196267 1.9725 0 0 0      
192 3 -1.20210353160704 191.48534289723364 29.090676574956007 1.9725 0 0 0      
193 3 -1.20210353160704 191.0985038206736 31.024871957756318 0.0 0 0 0      
194 1 1.19442724458204 193.419538280034 29.477515651516057 0.0 0 0 0      
195 2 2.39582187119593 194.9668945862743 31.798550110876477 1.9725 0 0 0      
196 3 -1.20210353160704 193.03269920347395 31.411711034316397 1.9725 0 0 0      
197 3 -1.20210353160704 195.35373366283432 29.864354728076137 1.9725 0 0 0      
198 3 -1.20210353160704 194.9668945862743 31.798550110876477 0.0 0 0 0      
199 1 1.19442724458204 197.28792904563463 30.251193804636216 0.0 0 0 0      
200 2 2.39582187119593 198.83528535187497 32.57222826399661 1.9725 0 0 0      
201 3 -1.20210353160704 196.90108996907463 32.18538918743653 1.9725 0 0 0      
202 3 -1.20210353160704 199.222124428435 30.638032881196267 1.9725 0 0 0      
203 3 -1.20210353160704 198.83528535187497 32.57222826399661 0.0 0 0 0      
204 1 1.19442724458204 201.1563198112353 31.024871957756346 0.0 0 0 0      
205 2 2.39582187119593 202.70367611747565 33.34590641711674 1.9725 0 0 0      
206 3 -1.20210353160704 200.7694807346753 32.95906734055666 1.9725 0 0 0      
207 3 -1.20210353160704 203.09051519403567 31.411711034316397 1.9725 0 0 0      
208 3 -1.20210353160704 202.70367611747565 33.34590641711674 0.0 0 0 0      
209 1 1.19442724458204 205.024710576836 31.798550110876477 0.0 0 0 0      
210 2 2.39582187119593 206.57206688307636 34.11958457023687 1.9725 0 0 0      
211 3 -1.20210353160704 204.637871500276 33.732745493676816 1.9725 0 0 0      
212 3 -1.20210353160704 206.95890595963635 32.185389187436556 1.9725 0 0 0      
213 3 -1.20210353160704 206.57206688307636 34.11958457023687 0.0 0 0 0      
214 1 1.19442724458204 208.8931013424367 32.57222826399661 0.0 0 0 0      
215 2 2.39582187119593 210.440457648677 34.893262723357 1.9725 0 0 0      
216 3 -1.20210353160704 208.50626226587667 34.50642364679695 1.9725 0 0 0      
217 3 -1.20210353160704 210.82729672523703 32.959067340556686 1.9725 0 0 0      
218 3 -1.20210353160704 210.440457648677 34.893262723357 0.0 0 0 0      
219 1 1.19442724458204 212.76149210803737 33.34590641711674 0.0 0 0 0      
220 2 2.39582187119593 214.3088484142777 35.666940876477156 1.9725 0 0 0      
221 3 -1.20210353160704 212.37465303147732 35.28010179991708 1.9725 0 0 0      
222 3 -1.20210353160704 214.6956874908377 33.732745493676816 1.9725 0 0 0      
223 3 -1.20210353160704 214.3088484142777 35.666940876477156 0.0 0 0 0      
224 1 1.19442724458204 216.62988287363805 34.119584570236896 0.0 0 0 0      
225 2 2.39582187119593 218.1772391798784 36.440619029597286 1.9725 0 0 0      
226 3 -1.20210353160704 216.24304379707803 36.05377995303721 1.9725 0 0 0      
227 3 -1.20210353160704 218.5640782564384 34.50642364679695 1.9725 0 0 0      
228 3 -1.20210353160704 218.1772391798784 36.440619029597286 0.0 0 0 0      
229 1 1.19442724458204 220.49827363923876 34.893262723357026 0.0 0 0 0      
230 2 2.39582187119593 222.04562994547905 37.21429718271742 1.9725 0 0 0      
231 3 -1.20210353160704 220.1114345626787 36.82745810615734 1.9725 0 0 0      
232 3 -1.20210353160704 222.43246902203916 35.28010179991708 1.9725 0 0 0      
233 3 -1.20210353160704 222.04562994547905 37.21429718271742 0.0 0 0 0      
234 1 1.19442724458204 224.3666644048394 35.666940876477156 0.0 0 0 0      
235 2 2.39582187119593 225.91402071107973 37.98797533583755 1.9725 0 0 0      
236 3 -1.20210353160704 223.9798253282794 37.601136259277496 1.9725 0 0 0      
237 3 -1.20210353160704 226.30085978763972 36.053779953037235 1.9725 0 0 0      
238 3 -1.20210353160704 225.91402071107973 37.98797533583755 0.0 0 0 0      
239 1 1.19442724458204 228.2350551704401 36.440619029597286 0.0 0 0 0      
240 2 2.39582187119593 229.7824114766804 38.76165348895768 1.9725 0 0 0      
241 3 -1.20210353160704 227.84821609388007 38.374814412397626 1.9725 0 0 0      
242 3 -1.20210353160704 230.16925055324043 36.827458106157366 1.9725 0 0 0      
243 3 -1.20210353160704 229.7824114766804 38.76165348895768 0.0 0 0 0      
244 1 1.19442724458204 232.1034459360408 37.21429718271742 0.0 0 0 0      
245 2 2.39582187119593 233.6508022422811 39.535331642077836 1.9725 0 0 0      
246 3 -1.20210353160704 231.71660685948075 39.148492565517756 1.9725 0 0 0      
247 3 -1.20210353160704 234.0376413188411 37.601136259277496 1.9725 0 0 0      
248 3 -1.20210353160704 233.6508022422811 39.535331642077836 0.0 0 0 0      
249 1 1.19442724458204 235.97183670164145 37.987975335837575 0.0 0 0 0      
250 2 2.39582187119593 237.51919300788177 40.309009795197966 1.9725 0 0 0      
251 3 -1.20210353160704 235.58499762508143 39.92217071863789 1.9725 0 0 0      
252 3 -1.20210353160704 237.51919300788177 40.309009795197966 0.0 0 0 0      
253 2 2.39582187119593 136.16735494914394 24.061768579675118 1.9725 0 0 0      
254 3 -1.20210353160704 136.16735494914394 24.061768579675118 0.0 0 0 0      
255 2 2.39582187119593 140.03574571474462 24.835446732795248 1.9725 0 0 0      
256 3 -1.20210353160704 138.10155033194428 24.44860765623517 1.9725 0 0 0      
257 3 -1.20210353160704 140.03574571474462 24.835446732795248 0.0 0 0 0      
258 2 2.39582187119593 143.9041364803453 25.609124885915378 1.9725 0 0 0      
259 3 -1.20210353160704 141.96994109754496 25.2222858093553 1.9725 0 0 0      
260 3 -1.20210353160704 143.9041364803453 25.609124885915378 0.0 0 0 0      
261 1 1.19442724458204 146.22517093970572 24.061768579675118 0.0 0 0 0      
262 2 2.39582187119593 147.77252724594598 26.382803039035508 1.9725 0 0 0      
263 3 -1.20210353160704 145.83833186314564 25.995963962475457 1.9725 0 0 0      
264 3 -1.20210353160704 148.15936632250606 24.44860765623517 1.9725 0 0 0      
265 3 -1.20210353160704 147.77252724594598 26.382803039035508 0.0 0 0 0      
266 1 1.19442724458204 150.0935617053064 24.83544673279522 0.0 0 0 0      
267 2 2.39582187119593 151.64091801154666 27.15648119215564 1.9725 0 0 0      
268 3 -1.20210353160704 149.70672262874632 26.76964211559556 1.9725 0 0 0      
269 3 -1.20210353160704 152.02775708810668 25.2222858093553 1.9725 0 0 0      
270 3 -1.20210353160704 151.64091801154666 27.15648119215564 0.0 0 0 0      
271 1 1.19442724458204 153.96195247090702 25.609124885915378 0.0 0 0 0      
272 2 2.39582187119593 155.50930877714734 27.930159345275797 1.9725 0 0 0      
273 3 -1.20210353160704 153.575113394347 27.543320268715718 1.9725 0 0 0      
274 3 -1.20210353160704 155.89614785370742 25.995963962475457 1.9725 0 0 0      
275 3 -1.20210353160704 155.50930877714734 27.930159345275797 0.0 0 0 0      
276 1 1.19442724458204 157.83034323650776 26.382803039035508 0.0 0 0 0      
277 2 2.39582187119593 159.37769954274802 28.703837498395927 1.9725 0 0 0      
278 3 -1.20210353160704 157.44350415994768 28.316998421835848 1.9725 0 0 0      
279 3 -1.20210353160704 159.7645386193081 26.769642115595587 1.9725 0 0 0      
280 3 -1.20210353160704 159.37769954274802 28.703837498395927 0.0 0 0 0      
281 1 1.19442724458204 161.69873400210844 27.15648119215564 0.0 0 0 0      
282 2 2.39582187119593 163.2460903083487 29.477515651516057 1.9725 0 0 0      
283 3 -1.20210353160704 161.31189492554836 29.090676574955978 1.9725 0 0 0      
284 3 -1.20210353160704 163.63292938490878 27.543320268715718 1.9725 0 0 0      
285 3 -1.20210353160704 163.2460903083487 29.477515651516057 0.0 0 0 0      
286 1 1.19442724458204 165.56712476770912 27.930159345275797 0.0 0 0 0      
287 2 2.39582187119593 167.11448107394938 30.251193804636188 1.9725 0 0 0      
288 3 -1.20210353160704 165.18028569114904 29.864354728076137 1.9725 0 0 0      
289 3 -1.20210353160704 167.50132015050946 28.316998421835848 1.9725 0 0 0      
290 3 -1.20210353160704 167.11448107394938 30.251193804636188 0.0 0 0 0      
291 1 1.19442724458204 169.43551553330974 28.7038374983959 0.0 0 0 0      
292 2 2.39582187119593 170.98287183955006 31.024871957756318 1.9725 0 0 0      
293 3 -1.20210353160704 169.04867645674972 30.63803288119624 1.9725 0 0 0      
294 3 -1.20210353160704 171.36971091611008 29.090676574955978 1.9725 0 0 0      
295 3 -1.20210353160704 170.98287183955006 31.024871957756318 0.0 0 0 0      
296 1 1.19442724458204 173.30390629891048 29.477515651516057 0.0 0 0 0      
297 2 2.39582187119593 174.85126260515074 31.798550110876477 1.9725 0 0 0      
298 3 -1.20210353160704 172.9170672223504 31.411711034316397 1.9725 0 0 0      
299 3 -1.20210353160704 175.23810168171082 29.864354728076137 1.9725 0 0 0      
300 3 -1.20210353160704 174.85126260515074 31.798550110876477 0.0 0 0 0      
301 1 1.19442724458204 177.17229706451116 30.251193804636188 0.0 0 0 0      
302 2 2.39582187119593 178.71965337075142 32.57222826399661 1.9725 0 0 0      
303 3 -1.20210353160704 176.78545798795108 32.18538918743653 1.9725 0 0 0      
304 3 -1.20210353160704 179.1064924473115 30.638032881196267 1.9725 0 0 0      
305 3 -1.20210353160704 178.71965337075142 32.57222826399661 0.0 0 0 0      
306 1 1.19442724458204 181.04068783011184 31.024871957756318 0.0 0 0 0      
307 2 2.39582187119593 182.5880441363521 33.34590641711674 1.9725 0 0 0      
308 3 -1.20210353160704 180.65384875355176 32.95906734055666 1.9725 0 0 0      
309 3 -1.20210353160704 182.97488321291215 31.411711034316397 1.9725 0 0 0      
310 3 -1.20210353160704 182.5880441363521 33.34590641711674 0.0 0 0 0      
311 1 1.19442724458204 184.9090785957125 31.798550110876477 0.0 0 0 0      
312 2 2.39582187119593 186.4564349019528 34.11958457023687 1.9725 0 0 0      
313 3 -1.20210353160704 184.52223951915244 33.732745493676816 1.9725 0 0 0      
314 3 -1.20210353160704 186.84327397851283 32.18538918743653 1.9725 0 0 0      
315 3 -1.20210353160704 186.4564349019528 34.11958457023687 0.0 0 0 0      
316 1 1.19442724458204 188.7774693613132 32.57222826399661 0.0 0 0 0      
317 2 2.39582187119593 190.32482566755343 34.893262723357 1.9725 0 0 0      
318 3 -1.20210353160704 188.39063028475312 34.50642364679695 1.9725 0 0 0      
319 3 -1.20210353160704 190.71166474411356 32.95906734055666 1.9725 0 0 0      
320 3 -1.20210353160704 190.32482566755343 34.893262723357 0.0 0 0 0      
321 1 1.19442724458204 192.64586012691387 33.34590641711674 0.0 0 0 0      
322 2 2.39582187119593 194.1932164331541 35.666940876477156 1.9725 0 0 0      
323 3 -1.20210353160704 192.2590210503538 35.28010179991708 1.9725 0 0 0      
324 3 -1.20210353160704 194.5800555097142 33.732745493676816 1.9725 0 0 0      
325 3 -1.20210353160704 194.1932164331541 35.666940876477156 0.0 0 0 0      
326 1 1.19442724458204 196.51425089251453 34.11958457023687 0.0 0 0 0      
327 2 2.39582187119593 198.0616071987548 36.440619029597286 1.9725 0 0 0      
328 3 -1.20210353160704 196.12741181595447 36.05377995303721 1.9725 0 0 0      
329 3 -1.20210353160704 198.4484462753149 34.50642364679695 1.9725 0 0 0      
330 3 -1.20210353160704 198.0616071987548 36.440619029597286 0.0 0 0 0      
331 1 1.19442724458204 200.38264165811523 34.893262723357 0.0 0 0 0      
332 2 2.39582187119593 201.9299979643555 37.21429718271742 1.9725 0 0 0      
333 3 -1.20210353160704 199.99580258155515 36.82745810615734 1.9725 0 0 0      
334 3 -1.20210353160704 202.3168370409156 35.28010179991708 1.9725 0 0 0      
335 3 -1.20210353160704 201.9299979643555 37.21429718271742 0.0 0 0 0      
336 1 1.19442724458204 204.2510324237159 35.666940876477156 0.0 0 0 0      
337 2 2.39582187119593 205.79838872995617 37.98797533583755 1.9725 0 0 0      
338 3 -1.20210353160704 203.86419334715583 37.601136259277496 1.9725 0 0 0      
339 3 -1.20210353160704 206.18522780651625 36.05377995303721 1.9725 0 0 0      
340 3 -1.20210353160704 205.79838872995617 37.98797533583755 0.0 0 0 0      
341 1 1.19442724458204 208.1194231893166 36.440619029597286 0.0 0 0 0      
342 2 2.39582187119593 209.66677949555685 38.76165348895768 1.9725 0 0 0      
343 3 -1.20210353160704 207.7325841127565 38.374814412397626 1.9725 0 0 0      
344 3 -1.20210353160704 210.05361857211693 36.82745810615734 1.9725 0 0 0      
345 3 -1.20210353160704 209.66677949555685 38.76165348895768 0.0 0 0 0      
346 1 1.19442724458204 211.98781395491727 37.21429718271742 0.0 0 0 0      
347 2 2.39582187119593 213.53517026115756 39.535331642077836 1.9725 0 0 0      
348 3 -1.20210353160704 211.6009748783572 39.148492565517756 1.9725 0 0 0      
349 3 -1.20210353160704 213.9220093377176 37.601136259277496 1.9725 0 0 0      
350 3 -1.20210353160704 213.53517026115756 39.535331642077836 0.0 0 0 0      
351 1 1.19442724458204 215.85620472051795 37.98797533583755 0.0 0 0 0      
352 2 2.39582187119593 217.4035610267582 40.309009795197966 1.9725 0 0 0      
353 3 -1.20210353160704 215.46936564395787 39.92217071863789 1.9725 0 0 0      
354 3 -1.20210353160704 217.7904001033183 38.374814412397626 1.9725 0 0 0      
355 3 -1.20210353160704 217.4035610267582 40.309009795197966 0.0 0 0 0      
356 1 1.19442724458204 219.72459548611863 38.76165348895768 0.0 0 0 0      
357 2 2.39582187119593 221.2719517923589 41.082687948318096 1.9725 0 0 0      
358 3 -1.20210353160704 219.33775640955852 40.69584887175802 1.9725 0 0 0      
359 3 -1.20210353160704 221.65879086891903 39.148492565517756 1.9725 0 0 0      
360 3 -1.20210353160704 221.2719517923589 41.082687948318096 0.0 0 0 0      
361 1 1.19442724458204 223.5929862517193 39.535331642077836 0.0 0 0 0      
362 2 2.39582187119593 225.1403425579596 41.856366101438226 1.9725 0 0 0      
363 3 -1.20210353160704 223.20614717515923 41.469527024878175 1.9725 0 0 0      
364 3 -1.20210353160704 225.52718163451965 39.92217071863789 1.9725 0 0 0      
365 3 -1.20210353160704 225.1403425579596 41.856366101438226 0.0 0 0 0      
366 1 1.19442724458204 227.46137701732 40.309009795197966 0.0 0 0 0      
367 2 2.39582187119593 229.00873332356025 42.630044254558356 1.9725 0 0 0      
368 3 -1.20210353160704 227.0745379407599 42.243205177998306 1.9725 0 0 0      
369 3 -1.20210353160704 229.39557240012036 40.69584887175802 1.9725 0 0 0      
370 3 -1.20210353160704 229.00873332356025 42.630044254558356 0.0 0 0 0      
371 1 1.19442724458204 231.32976778292067 41.082687948318096 0.0 0 0 0      
372 2 2.39582187119593 232.87712408916093 43.403722407678515 1.9725 0 0 0      
373 3 -1.20210353160704 230.9429287063606 43.016883331118436 1.9725 0 0 0      
374 3 -1.20210353160704 233.263963165721 41.469527024878175 1.9725 0 0 0      
375 3 -1.20210353160704 232.87712408916093 43.403722407678515 0.0 0 0 0      
376 1 1.19442724458204 235.19815854852132 41.856366101438226 0.0 0 0 0      
377 2 2.39582187119593 236.7455148547616 44.177400560798645 1.9725 0 0 0      