ITEM: TIMESTEP
0
ITEM: NUMBER OF ATOMS
14778
ITEM: BOX BOUNDS pp pp pp
-5.8826799421377984e-01 2.7526413025512976e+01
-1.4279697004697843e+02 1.4279697004697843e+02
8.8358931041208066e-02 2.3581641068959058e+01
ITEM: ATOMS id mass type xs ys zs
25 15.999 3 0.00865795 0.0098999 0.0802708
3 15.999 3 0.150176 0.00400872 0.0811509
4 47.867 2 0.173107 0.0104806 0.082974
5 15.999 3 0.239983 0.00841395 0.0848021
6 87.62 1 0.216969 0.00135299 1.22327e-05
7 47.867 2 0.304764 0.006029 0.0825321
8 15.999 3 0.30829 0.00617123 0.00055361
9 15.999 3 0.37439 0.00374014 0.0819825
10 15.999 3 0.468313 0.00744745 0.0790792
11 47.867 2 0.440225 0.000901818 0.0800157
13 87.62 1 0.400216 0.00976821 0.00475873
14 15.999 3 0.59749 0.00256185 0.0783541
15 47.867 2 0.623414 0.00954549 0.0821447
17 87.62 1 0.526977 0.00503691 0.000176329
18 15.999 3 0.687692 0.00715764 0.0858698
20 47.867 2 0.754813 0.00475753 0.0810074
22 15.999 3 0.821397 0.00266494 0.0785425
23 87.62 1 0.847705 0.00836104 0.00383428
24 15.999 3 0.780905 0.0110511 0.0851606
26 15.999 3 0.916612 0.00596465 0.0899365
27 15.999 3 0.106938 0.0134309 0.0853235
28 47.867 2 0.0392792 0.0156479 0.0825254
29 15.999 3 0.0671536 0.0221672 0.0801858
31 15.999 3 0.198019 0.0170853 0.0816863
33 15.999 3 0.331629 0.0124275 0.0794552
34 15.999 3 0.288241 0.0215844 0.0830623
35 47.867 2 0.357725 0.0185919 0.0807607
38 15.999 3 0.423068 0.0165666 0.0831991
39 47.867 2 0.491643 0.0141454 0.0833803
41 15.999 3 0.511358 0.0207755 0.0910181
42 15.999 3 0.553158 0.0118431 0.0790352
44 15.999 3 0.6442 0.0162012 0.0837674
45 47.867 2 0.669405 0.0224968 0.0814349
46 15.999 3 0.738688 0.0197771 0.0844849
48 15.999 3 0.671079 0.0226531 0.00116276
49 47.867 2 0.803463 0.0172347 0.0831246
50 15.999 3 0.871207 0.0152549 0.0845223
51 87.62 1 0.894365 0.0215404 0.00269282
52 47.867 2 0.938662 0.0125441 0.0885799
53 15.999 3 0.974191 0.0184582 0.0785543
55 47.867 2 0.0880243 0.0283216 0.0830697
56 15.999 3 0.0225576 0.0308383 0.0787003
58 47.867 2 0.222152 0.0235782 0.0842457
59 15.999 3 0.156513 0.0258827 0.0867424
62 15.999 3 0.245228 0.0301202 0.0856968
64 87.62 1 0.309515 0.027756 0.000334859
65 15.999 3 0.334762 0.033827 0.0841033
63 15.999 3 0.379784 0.0253696 0.083533
66 47.867 2 0.402687 0.0316636 0.0823968
67 15.999 3 0.469945 0.0297224 0.0855596
68 15.999 3 0.405003 0.0320028 0.00372935
69 87.62 1 0.450073 0.023013 0.00384258
70 47.867 2 0.537931 0.0270815 0.0863105
71 15.999 3 0.561884 0.0339356 0.083159
72 15.999 3 0.603808 0.0249658 0.0863012
73 15.999 3 0.540793 0.026936 0.00658687
75 15.999 3 0.691327 0.0292203 0.0853796
76 87.62 1 0.762516 0.0263892 0.000936538
77 15.999 3 0.826508 0.023799 0.0802943
78 15.999 3 0.783013 0.0324431 0.0830947
79 47.867 2 0.848977 0.0302051 0.0837888
81 15.999 3 0.914655 0.0283478 0.0835887
82 15.999 3 0.0688339 0.0439893 0.0816468
83 15.999 3 0.113515 0.0350199 0.0831931
85 47.867 2 0.13893 0.0414335 0.0787646
87 15.999 3 0.203935 0.0392129 0.0807357
88 87.62 1 0.2292 0.0456592 0.00254991
89 47.867 2 0.270725 0.0364643 0.0844213
90 15.999 3 0.294512 0.0433254 0.082401
91 15.999 3 0.268724 0.0368479 0.00135909
12905 87.62 1 0.359053 0.0410499 0.00551359
92 15.999 3 0.426409 0.038748 0.0803676
93 47.867 2 0.453764 0.0448845 0.079271
12908 87.62 1 0.498624 0.0364544 0.00334332
95 15.999 3 0.516875 0.04237 0.0883719
96 47.867 2 0.587897 0.0402118 0.0840703
98 15.999 3 0.65424 0.0381483 0.0828266
99 47.867 2 0.71844 0.0352764 0.0848045
100 15.999 3 0.746497 0.0419826 0.079346
101 87.62 1 0.679598 0.0436131 0.00339909
12916 87.62 1 0.811639 0.0394647 0.000245036
103 15.999 3 0.875158 0.0371911 0.0824142
104 15.999 3 0.968859 0.0412342 0.0875546
105 47.867 2 0.901971 0.0434238 0.0873927
106 87.62 1 0.940357 0.0349779 0.00655067
107 15.999 3 0.0281818 0.0533559 0.0811919
130 47.867 2 0.00822496 0.0466848 0.0838843
110 15.999 3 0.164784 0.0483008 0.0838834
111 47.867 2 0.191144 0.0547697 0.0839569
12924 15.999 3 0.18585 0.0544765 0.00262767
112 15.999 3 0.253845 0.0523986 0.0851294
113 47.867 2 0.319067 0.0500751 0.0843718
114 15.999 3 0.346762 0.0565277 0.0832268
116 15.999 3 0.385486 0.0473055 0.0798606
117 15.999 3 0.478769 0.0516458 0.0796193
118 87.62 1 0.410057 0.0537694 0.000467401
119 15.999 3 0.567038 0.0557094 0.0867347
120 15.999 3 0.608663 0.0467762 0.0833265
121 87.62 1 0.547147 0.0492444 0.00561668
122 47.867 2 0.633423 0.0528728 0.0829997
123 15.999 3 0.633141 0.052992 0.000853015
124 15.999 3 0.699633 0.0505717 0.0891095
125 47.867 2 0.770238 0.0483652 0.0827484
126 15.999 3 0.769731 0.0489393 0.00382885
127 15.999 3 0.837821 0.0464111 0.0822674
128 15.999 3 0.794055 0.054951 0.0882467
129 87.62 1 0.866292 0.0524273 0.00179823
131 15.999 3 0.933965 0.0495487 0.0834219
132 87.62 1 0.965097 0.0554833 0.000178549
108 15.999 3 0.120024 0.0574821 0.0788695
133 47.867 2 0.0538904 0.059714 0.0871517
134 15.999 3 0.081612 0.066003 0.0894182
135 15.999 3 0.0517018 0.0604402 0.00192394
158 87.62 1 0.0174973 0.0684845 0.00960889
136 15.999 3 0.213053 0.0613532 0.0793374
137 47.867 2 0.235672 0.0675877 0.0809356
138 15.999 3 0.303438 0.0655598 0.0781761
139 47.867 2 0.370637 0.0630235 0.0851929
142 15.999 3 0.439144 0.0605554 0.0857151
143 15.999 3 0.501828 0.0582544 0.00185253
144 47.867 2 0.5021 0.0582484 0.0830818
146 15.999 3 0.526652 0.0651011 0.0839599
147 87.62 1 0.59469 0.0620791 0.00145056
149 15.999 3 0.658216 0.0597271 0.0793493
150 47.867 2 0.686427 0.0663057 0.0835792
152 15.999 3 0.689317 0.0664081 0.00156557
151 15.999 3 0.754771 0.0638346 0.084858
154 47.867 2 0.81672 0.061138 0.0856063
156 15.999 3 0.814823 0.0613117 0.000815463
157 15.999 3 0.844853 0.0679636 0.0887766
155 15.999 3 0.884969 0.0588778 0.0855201
159 15.999 3 0.991033 0.0626044 0.0937645
160 87.62 1 0.908045 0.0657068 0.0031845
161 15.999 3 0.0376175 0.0746593 0.0823307
162 47.867 2 0.106919 0.0725478 0.0842166
163 15.999 3 0.12826 0.0792425 0.0825802
165 15.999 3 0.170897 0.0702584 0.0835825
12962 87.62 1 0.197714 0.0767712 0.00357263
166 15.999 3 0.260775 0.0744907 0.0846573
167 15.999 3 0.353077 0.0786238 0.0817787
168 15.999 3 0.394888 0.069448 0.0854266
169 47.867 2 0.42044 0.075909 0.0858969
170 15.999 3 0.488639 0.0739733 0.0822568
171 15.999 3 0.417661 0.0762472 0.00461239
148 15.999 3 0.619077 0.0690019 0.0788005
173 47.867 2 0.550749 0.0712424 0.0819168
174 15.999 3 0.576859 0.0778917 0.0861769
175 15.999 3 0.547805 0.0712542 0.00270688
177 15.999 3 0.711495 0.0724406 0.0909326
178 47.867 2 0.732486 0.0792696 0.0845801
180 15.999 3 0.802358 0.0771997 0.0863485
181 47.867 2 0.86866 0.0741222 0.0873928
182 15.999 3 0.861298 0.0746243 0.00616634
12975 87.62 1 0.772998 0.0704193 0.00269431
183 47.867 2 0.968831 0.0775428 0.085146
184 15.999 3 0.938483 0.071789 0.0847835
185 15.999 3 0.972717 0.0778099 0.0069281
186 15.999 3 0.902031 0.0799686 0.0856945
187 15.999 3 0.0858313 0.0878831 0.0884928
188 87.62 1 0.0624131 0.0809737 0.00356791
189 47.867 2 0.0186423 0.0901321 0.0866524
190 15.999 3 0.0201932 0.0899705 0.00207237
191 47.867 2 0.153259 0.0858291 0.0856523
192 15.999 3 0.219182 0.0832971 0.0855402
193 87.62 1 0.243142 0.0898101 0.00559011
12982 15.999 3 0.152417 0.0854649 0.00244124
194 47.867 2 0.287126 0.0806488 0.0803085
195 15.999 3 0.307977 0.0872883 0.0836189
196 15.999 3 0.282034 0.0806525 0.00230913
197 15.999 3 0.443653 0.0827037 0.0883021
198 47.867 2 0.470554 0.0889507 0.0843186
199 15.999 3 0.467078 0.0889001 0.00188607
221 15.999 3 0.403958 0.0915088 0.0879898
12985 87.62 1 0.379757 0.0850612 0.00680205
200 15.999 3 0.537618 0.0867085 0.0826751
201 47.867 2 0.602978 0.0844076 0.0837802
203 15.999 3 0.603344 0.0844857 0.00182299
202 15.999 3 0.630429 0.0906479 0.0876897
204 15.999 3 0.667508 0.0814919 0.080943
205 87.62 1 0.692292 0.0881036 0.00216313
206 15.999 3 0.749852 0.0858711 0.0847453
207 15.999 3 0.841376 0.0895161 0.0902814
12996 87.62 1 0.818196 0.0831627 0.00353036
208 15.999 3 0.993941 0.0838815 0.0893989
209 87.62 1 0.931155 0.086378 0.00111282
210 15.999 3 0.0473406 0.096916 0.0833217
212 87.62 1 0.11502 0.0941546 0.00164318
237 47.867 2 0.0717908 0.10338 0.0838922
211 15.999 3 0.134008 0.101238 0.0865648
213 15.999 3 0.17729 0.0923303 0.0826588
214 47.867 2 0.203032 0.0987576 0.0863429
215 15.999 3 0.202331 0.0987299 0.00227347
216 15.999 3 0.270266 0.0962129 0.0840671
217 47.867 2 0.337032 0.0937427 0.0881358
218 15.999 3 0.362038 0.1002 0.0895101
219 15.999 3 0.333718 0.0939986 0.00429932
220 87.62 1 0.298776 0.102729 0.00379659
222 15.999 3 0.491657 0.0956505 0.0834458
223 87.62 1 0.423361 0.0980176 0.00635022
224 47.867 2 0.518607 0.102362 0.0838997
225 15.999 3 0.580702 0.0996289 0.0876288
13007 15.999 3 0.52004 0.102212 0.0017644
13010 87.62 1 0.558523 0.0933475 0.00433976
226 47.867 2 0.64893 0.09709 0.0871406
227 15.999 3 0.644016 0.0969377 0.000929525
228 15.999 3 0.718532 0.095123 0.0826529
230 47.867 2 0.781034 0.0925479 0.0855891
231 15.999 3 0.785915 0.0926307 0.00260953
232 15.999 3 0.805589 0.0987785 0.0894911
234 87.62 1 0.872744 0.096055 0.00376055
233 15.999 3 0.89946 0.102298 0.0826361
235 15.999 3 0.955978 0.0927334 0.0821249
238 15.999 3 0.0682958 0.103476 0.00185622
239 15.999 3 0.0951468 0.110343 0.0846341
240 87.62 1 0.0287903 0.112354 0.0059029
241 87.62 1 0.161868 0.10787 0.00168721
242 15.999 3 0.225508 0.105271 0.0876665
244 15.999 3 0.183051 0.114499 0.0827896
243 47.867 2 0.251857 0.111557 0.0876268
245 15.999 3 0.250868 0.111629 0.00318897
246 15.999 3 0.314982 0.109408 0.0892027
247 47.867 2 0.38312 0.106997 0.0892352
248 15.999 3 0.379558 0.106988 0.00658906
249 15.999 3 0.409052 0.113401 0.0871307
250 15.999 3 0.449908 0.104877 0.0844278
13026 87.62 1 0.4721 0.111255 0.000725572
251 15.999 3 0.54215 0.108494 0.0810338
13028 87.62 1 0.6105 0.106229 0.0022646
252 15.999 3 0.634018 0.112842 0.0816734
253 15.999 3 0.670851 0.103644 0.0820669
254 47.867 2 0.697808 0.110531 0.0859509
255 15.999 3 0.699927 0.110247 0.0048669
256 15.999 3 0.762179 0.108152 0.0903106
257 47.867 2 0.829608 0.105127 0.0882769
258 15.999 3 0.863852 0.110919 0.0874493
259 15.999 3 0.826093 0.105236 0.00218391
261 15.999 3 0.998465 0.105892 0.0811572
262 47.867 2 0.931309 0.108229 0.08242
264 15.999 3 0.934896 0.108643 0.00322817
265 15.999 3 0.0506609 0.119132 0.083004
266 47.867 2 0.118806 0.116616 0.0839312
268 15.999 3 0.117363 0.117033 0.00133415
267 15.999 3 0.146197 0.123499 0.0861697
13042 87.62 1 0.208257 0.120253 0.00538494
270 15.999 3 0.276909 0.118062 0.0873611
271 15.999 3 0.366942 0.122663 0.0849353
272 47.867 2 0.299915 0.125051 0.08313
273 87.62 1 0.339999 0.115614 0.00333817
274 15.999 3 0.300442 0.125041 0.000985475
275 47.867 2 0.434197 0.119995 0.0868643
13046 15.999 3 0.43695 0.120143 0.00499127
276 15.999 3 0.500137 0.117662 0.0906921
278 47.867 2 0.566991 0.115227 0.0913526
279 15.999 3 0.589062 0.121807 0.082622
281 15.999 3 0.560657 0.115431 0.00113025
280 87.62 1 0.654273 0.119614 0.000255674
282 15.999 3 0.720277 0.117163 0.0812835
283 47.867 2 0.747918 0.123096 0.0833784
284 15.999 3 0.744521 0.12332 0.00139462
285 15.999 3 0.681545 0.12621 0.0844193
286 15.999 3 0.811338 0.120743 0.0861574
263 15.999 3 0.95645 0.115193 0.0843277
287 87.62 1 0.897179 0.117204 0.000709443
288 47.867 2 0.984 0.121157 0.0820383
289 15.999 3 0.922803 0.124052 0.0752563
291 15.999 3 0.0965236 0.132064 0.0790108
292 47.867 2 0.0316498 0.134383 0.0789546
315 15.999 3 0.00962463 0.128044 0.0743054
294 47.867 2 0.166911 0.129802 0.0851594
295 15.999 3 0.233573 0.127594 0.0899402
296 15.999 3 0.190886 0.136186 0.0827164
298 87.62 1 0.260562 0.133677 0.00150058
299 15.999 3 0.322059 0.131716 0.0842086
301 15.999 3 0.412511 0.13557 0.0934669
302 15.999 3 0.455475 0.126819 0.0910758
303 47.867 2 0.478179 0.133233 0.0891338
304 15.999 3 0.476378 0.133284 0.00415557
13062 87.62 1 0.388536 0.12917 0.010051
305 15.999 3 0.545938 0.13094 0.0854483
306 47.867 2 0.614456 0.128612 0.0855913
308 15.999 3 0.61402 0.128687 0.00217559
307 15.999 3 0.639914 0.134876 0.0860956
310 87.62 1 0.706741 0.1325 0.00244261
311 15.999 3 0.771369 0.130081 0.0852164
312 47.867 2 0.794912 0.136532 0.0846252
313 15.999 3 0.86166 0.134054 0.08465
316 15.999 3 0.964694 0.136402 0.0819408
317 15.999 3 0.0609216 0.140984 0.0842922
318 47.867 2 0.0827305 0.147586 0.0805652
320 15.999 3 0.090529 0.147295 3.87722e-05
319 15.999 3 0.15099 0.145361 0.090326
322 47.867 2 0.21652 0.142773 0.0863446
323 15.999 3 0.214417 0.142629 0.00451342
324 15.999 3 0.241323 0.149377 0.0833874
300 47.867 2 0.343452 0.138102 0.0868642
325 15.999 3 0.280493 0.140601 0.0873628
326 15.999 3 0.368991 0.144683 0.0869504
328 15.999 3 0.346771 0.138372 0.00492717
330 15.999 3 0.461506 0.148668 0.0823368
331 87.62 1 0.434386 0.142465 0.00414394
329 15.999 3 0.505558 0.139883 0.0859368
332 47.867 2 0.527553 0.146204 0.0836786
333 15.999 3 0.531125 0.146232 0.000580986
334 15.999 3 0.597591 0.143792 0.0825509
335 47.867 2 0.664672 0.141369 0.0826227
336 15.999 3 0.732217 0.139326 0.0804334
337 15.999 3 0.689382 0.147772 0.0873388
13089 15.999 3 0.661811 0.141391 0.00142213
338 15.999 3 0.830053 0.142578 0.0789476
13091 87.62 1 0.752229 0.145805 0.00288766
339 47.867 2 0.901946 0.139585 0.0808281
341 15.999 3 0.905881 0.139613 0.000556062
342 15.999 3 0.928006 0.145747 0.0779395
344 15.999 3 0.105721 0.154177 0.0841777
368 15.999 3 0.0170853 0.149662 0.0761491
346 47.867 2 0.13185 0.160496 0.0836517
347 15.999 3 0.128625 0.160834 0.00198961
348 15.999 3 0.195417 0.157816 0.0854034
350 87.62 1 0.173676 0.151357 0.000989461
349 47.867 2 0.264564 0.155723 0.086279
351 15.999 3 0.260563 0.155862 0.0021495
352 15.999 3 0.328722 0.153343 0.0868879
354 87.62 1 0.357129 0.16031 0.00292135
353 47.867 2 0.391935 0.150758 0.0852508
355 15.999 3 0.392808 0.15113 0.00325724
356 15.999 3 0.41975 0.15771 0.0840827
358 15.999 3 0.550836 0.152746 0.0815345
359 47.867 2 0.577952 0.15904 0.0826971
361 15.999 3 0.575782 0.159324 0.00100989
360 15.999 3 0.643237 0.156536 0.0813347
363 47.867 2 0.710713 0.154034 0.0837446
386 15.999 3 0.735673 0.160739 0.0818146
364 15.999 3 0.776329 0.152155 0.0888574
367 87.62 1 0.796357 0.158468 0.000851776
366 15.999 3 0.884269 0.154796 0.0918767
369 47.867 2 0.949841 0.152389 0.0813245
370 15.999 3 0.976582 0.158853 0.0855982
372 15.999 3 0.0651057 0.163196 0.0847929
394 15.999 3 0.0214007 0.172066 0.0818102
373 15.999 3 0.157844 0.167124 0.0814446
375 15.999 3 0.247128 0.171616 0.0807055
376 87.62 1 0.219934 0.164591 0.00290731
377 15.999 3 0.285145 0.162216 0.0852102
378 47.867 2 0.311752 0.169012 0.0825647
380 15.999 3 0.315048 0.168756 0.00125651
379 15.999 3 0.377076 0.166433 0.0881866
381 47.867 2 0.443307 0.164068 0.0852764
382 15.999 3 0.466952 0.170948 0.0813626
384 15.999 3 0.445908 0.164347 0.000895366
383 15.999 3 0.510302 0.161657 0.0863999
385 15.999 3 0.609928 0.165692 0.0853692
387 15.999 3 0.696869 0.169833 0.083811
412 47.867 2 0.629404 0.172137 0.085077
13124 87.62 1 0.668838 0.163179 0.00351653
13143 15.999 3 0.63292 0.172228 0.000899323
388 47.867 2 0.76267 0.167343 0.0839519
390 15.999 3 0.829495 0.164761 0.07892
391 47.867 2 0.870284 0.170344 0.081843
392 15.999 3 0.869992 0.170923 0.00189427
393 87.62 1 0.906538 0.161435 0.00409184
395 47.867 2 0.999545 0.165518 0.0846929
396 15.999 3 0.932594 0.167584 0.0826223
397 15.999 3 0.998869 0.165632 0.00190091
398 15.999 3 0.112606 0.175889 0.0839099
399 47.867 2 0.0458115 0.178774 0.0853163
401 47.867 2 0.18169 0.173916 0.0826643
402 15.999 3 0.201927 0.18023 0.0848224
403 15.999 3 0.180678 0.173864 0.00258545
13133 87.62 1 0.133518 0.182609 0.00171148
405 15.999 3 0.339337 0.175591 0.0832504
406 47.867 2 0.359495 0.182067 0.0831467
407 15.999 3 0.363401 0.182363 0.00176213
408 87.62 1 0.403698 0.17265 0.000810183
409 15.999 3 0.429269 0.180064 0.0871867
410 47.867 2 0.49503 0.176926 0.0818822
411 15.999 3 0.497284 0.176815 2.2189e-06
413 15.999 3 0.56564 0.174333 0.0853915
434 15.999 3 0.520584 0.183686 0.0790625
415 15.999 3 0.655018 0.178799 0.085372
416 15.999 3 0.744263 0.183216 0.0816844
417 15.999 3 0.793089 0.173442 0.08398
419 87.62 1 0.834645 0.179361 0.00270459
418 15.999 3 0.893225 0.1768 0.0811194
420 47.867 2 0.914611 0.183438 0.0857729
422 15.999 3 0.985101 0.181161 0.0821665
423 87.62 1 0.961529 0.174107 3.53518e-05
424 15.999 3 0.0759432 0.184936 0.0863987
425 47.867 2 0.0987908 0.191697 0.0836312
426 15.999 3 0.0958612 0.191637 0.00174846
448 15.999 3 0.0292492 0.193969 0.0822407
427 15.999 3 0.165288 0.18921 0.0813552
428 47.867 2 0.228075 0.186905 0.0866168
429 15.999 3 0.232746 0.186712 0.00243762
430 15.999 3 0.253947 0.19308 0.0849344
431 15.999 3 0.29443 0.184152 0.0831389
433 87.62 1 0.322137 0.190838 0.000430097
432 15.999 3 0.384514 0.188434 0.080551
435 47.867 2 0.410292 0.194898 0.082613
436 15.999 3 0.47783 0.192801 0.0829544
437 87.62 1 0.451009 0.186085 0.00137288
460 15.999 3 0.409804 0.195003 0.00113355
438 47.867 2 0.544288 0.190067 0.082454
439 15.999 3 0.611229 0.187203 0.0815136
442 47.867 2 0.67887 0.18519 0.0801052
443 15.999 3 0.700047 0.191927 0.0786117
446 15.999 3 0.853759 0.185542 0.0814382
449 15.999 3 0.941656 0.189994 0.0877929
451 15.999 3 0.120509 0.198136 0.0866265
453 47.867 2 0.147412 0.204755 0.0835989
454 15.999 3 0.143172 0.204657 0.00236419
455 15.999 3 0.211253 0.202041 0.0797025
456 47.867 2 0.277626 0.199636 0.0818772
458 15.999 3 0.345974 0.197522 0.0859059
459 15.999 3 0.299923 0.206531 0.0872803
13171 15.999 3 0.281377 0.199618 0.00112909
13174 87.62 1 0.366329 0.203853 0.00531603
461 15.999 3 0.43458 0.201915 0.0799483
462 15.999 3 0.525037 0.205452 0.0826141
463 15.999 3 0.56729 0.19659 0.0825611
464 47.867 2 0.591654 0.203081 0.0802943
466 15.999 3 0.658883 0.200643 0.0802843
467 47.867 2 0.725219 0.198103 0.0829022
468 15.999 3 0.759371 0.204246 0.0850179
470 15.999 3 0.794627 0.195546 0.0837599
471 47.867 2 0.83097 0.201185 0.0804514
472 15.999 3 0.895745 0.198479 0.0820312
474 15.999 3 0.992021 0.202621 0.0894882
475 47.867 2 0.966612 0.196237 0.0857546
13188 87.62 1 0.927098 0.205166 0.000290656
477 15.999 3 0.0811705 0.20743 0.0845869
478 15.999 3 0.0347933 0.216219 0.0786444
479 87.62 1 0.102736 0.213545 0.00258777
501 15.999 3 0.0159502 0.20911 0.00400356
502 47.867 2 0.0133057 0.209469 0.0821976
480 15.999 3 0.17295 0.211154 0.084734
482 47.867 2 0.196923 0.217779 0.0849857
483 15.999 3 0.192932 0.218185 0.00061942
13193 87.62 1 0.237848 0.208634 0.00183272
481 15.999 3 0.260559 0.215073 0.0831824
484 47.867 2 0.326604 0.212928 0.0857137
13197 15.999 3 0.331347 0.212859 0.00127757
485 15.999 3 0.394899 0.210614 0.08833
487 47.867 2 0.457975 0.208039 0.0823976
488 15.999 3 0.482359 0.214429 0.0851624
490 15.999 3 0.615352 0.209482 0.0818085
517 15.999 3 0.573218 0.218311 0.082423
491 47.867 2 0.636494 0.215915 0.0800202
494 15.999 3 0.705146 0.213844 0.0842315
496 15.999 3 0.860039 0.207846 0.0813988
498 15.999 3 0.820152 0.216677 0.0779571
497 47.867 2 0.886912 0.213978 0.0773493
503 15.999 3 0.947546 0.211772 0.082165
505 47.867 2 0.0642142 0.222956 0.0871174
507 15.999 3 0.0895579 0.229434 0.082193
508 15.999 3 0.068437 0.222656 0.00172299
526 15.999 3 0.00124329 0.225149 0.0876663
506 15.999 3 0.130224 0.220085 0.0895891
509 15.999 3 0.220315 0.224499 0.0866118
510 15.999 3 0.352477 0.219273 0.0896849
512 15.999 3 0.308633 0.228712 0.0844633
511 47.867 2 0.375294 0.225561 0.087956
514 15.999 3 0.440475 0.22385 0.0882265
515 47.867 2 0.504547 0.221117 0.0864599
516 15.999 3 0.534176 0.227527 0.0875707
518 87.62 1 0.59652 0.22483 0.00163567
13219 15.999 3 0.505321 0.2212 0.00537428
519 15.999 3 0.662158 0.222641 0.0800622
520 47.867 2 0.688725 0.228909 0.0822959
522 87.62 1 0.725833 0.220206 0.0124336
521 15.999 3 0.753965 0.226857 0.0810674
504 87.62 1 0.977378 0.218828 0.000790464
524 15.999 3 0.910837 0.221065 0.0811586
527 47.867 2 0.938844 0.227056 0.0877571
529 15.999 3 0.0591127 0.238569 0.0887189
530 47.867 2 0.12051 0.236274 0.0810692
532 15.999 3 0.179585 0.233413 0.0831573
533 47.867 2 0.244683 0.230926 0.0771239
534 15.999 3 0.265007 0.237637 0.0776278
556 15.999 3 0.359649 0.240933 0.0868034
13236 87.62 1 0.340539 0.234251 0.000161912
537 15.999 3 0.397555 0.23255 0.0844506
538 47.867 2 0.425186 0.238776 0.0855339
539 15.999 3 0.422579 0.238599 0.000178523
540 15.999 3 0.490222 0.236318 0.087213
13238 87.62 1 0.462681 0.229984 0.0058511
541 15.999 3 0.553819 0.233446 0.000927223
542 47.867 2 0.556177 0.234018 0.083995
544 15.999 3 0.574225 0.240249 0.0784599
543 15.999 3 0.626836 0.231825 0.0813237
545 15.999 3 0.723109 0.234692 0.0776938
546 47.867 2 0.734368 0.241364 0.0862551
525 15.999 3 0.841189 0.22993 0.0981535
547 47.867 2 0.790583 0.232233 0.0617316
548 15.999 3 0.801181 0.238543 0.0811149
549 15.999 3 0.949227 0.233441 0.0876949
550 15.999 3 0.0677467 0.248248 0.0804839
570 47.867 2 0.0280737 0.243756 0.0991592
551 47.867 2 0.134038 0.249639 0.0827148
552 15.999 3 0.149983 0.242685 0.0846636
553 15.999 3 0.193896 0.252535 0.0844721
555 47.867 2 0.299156 0.243222 0.0801183
557 15.999 3 0.29668 0.249545 0.0825902
558 87.62 1 0.377503 0.250045 0.000917367
559 15.999 3 0.450236 0.24492 0.0795979
560 47.867 2 0.476218 0.251046 0.085505
561 15.999 3 0.485498 0.252182 0.00298605
562 15.999 3 0.543024 0.249463 0.0859623
563 47.867 2 0.608854 0.246554 0.0803077
13262 87.62 1 0.516399 0.242506 0.00155056
565 15.999 3 0.648191 0.252457 0.0756655
566 15.999 3 0.667421 0.242958 0.084071
567 15.999 3 0.757728 0.247025 0.0911852
569 15.999 3 0.886616 0.247507 0.0335721
571 15.999 3 0.972555 0.244115 0.0608748
572 47.867 2 0.945171 0.249494 0.0179779
573 15.999 3 0.103252 0.258023 0.0819165
588 15.999 3 0.0099476 0.262092 0.0745026
576 15.999 3 0.238016 0.262155 0.0837226
13276 87.62 1 0.171293 0.259463 0.00199497
575 47.867 2 0.253062 0.254745 0.0842586
577 15.999 3 0.264531 0.255716 0.00706198
578 15.999 3 0.382113 0.26073 0.00979774
579 47.867 2 0.402541 0.261174 0.0851839
580 15.999 3 0.420869 0.254593 0.0827316
581 15.999 3 0.460644 0.264302 0.0766093
582 15.999 3 0.559055 0.260445 0.0913031
583 87.62 1 0.575951 0.256006 0.00709716
585 87.62 1 0.713899 0.26045 0.0119838
584 15.999 3 0.786827 0.261931 0.0824301
586 87.62 1 0.822328 0.253598 0.0721199
13286 87.62 1 0.84748 0.264125 0.000614022
587 15.999 3 0.891775 0.258587 0.0596165
589 15.999 3 0.970359 0.253538 0.073096
590 47.867 2 0.948369 0.259499 0.0923883
574 15.999 3 0.0819688 0.264549 0.00345033
591 47.867 2 0.0805333 0.264431 0.0820165
592 15.999 3 0.055464 0.270989 0.0803849
594 87.62 1 0.121423 0.273312 0.0067288
593 15.999 3 0.146265 0.267001 0.0916518
595 47.867 2 0.211808 0.269151 0.0889171
597 15.999 3 0.186028 0.275561 0.0861461
13294 15.999 3 0.211807 0.268897 0.00313656
596 15.999 3 0.27563 0.271916 0.0862969
598 15.999 3 0.369069 0.267748 0.0890589
599 47.867 2 0.34243 0.274194 0.08581
13297 87.62 1 0.295588 0.265271 0.00419643
13298 15.999 3 0.341328 0.274109 0.00614718
13301 87.62 1 0.43313 0.270507 0.00457715
600 15.999 3 0.504514 0.273307 0.0778376
601 47.867 2 0.53294 0.266316 0.0841048
602 15.999 3 0.59541 0.269435 0.088589
604 87.62 1 0.568056 0.275854 0.00709249
13302 15.999 3 0.537087 0.266593 0.00276199
603 47.867 2 0.658303 0.271876 0.0862013
605 15.999 3 0.691972 0.265628 0.0906431
607 15.999 3 0.731307 0.274043 0.0890289
13304 15.999 3 0.659852 0.271544 0.00471709
606 47.867 2 0.761528 0.267918 0.0899228
608 15.999 3 0.829075 0.270553 0.0838447
13308 15.999 3 0.762657 0.268089 0.00231511
609 47.867 2 0.895719 0.272677 0.0801407
610 15.999 3 0.927527 0.266452 0.0827348
611 87.62 1 0.989611 0.268498 0.00479756
612 15.999 3 0.964301 0.275597 0.0791592
13312 15.999 3 0.893483 0.272852 0.00144621
613 15.999 3 0.0943531 0.28045 0.0855241
614 87.62 1 0.0700153 0.286605 0.000355687
634 47.867 2 0.0279611 0.277992 0.0821186
635 15.999 3 0.00497794 0.284406 0.0885914
13338 15.999 3 0.0307535 0.277903 0.00195976
615 47.867 2 0.159236 0.282713 0.0863979
616 15.999 3 0.228784 0.284751 0.0887543
617 87.62 1 0.249778 0.278636 0.00517075
13317 15.999 3 0.163037 0.282263 0.00455085
619 15.999 3 0.321135 0.280919 0.0916746
621 15.999 3 0.40884 0.276882 0.0814188
622 47.867 2 0.477276 0.279612 0.0817609
623 15.999 3 0.448833 0.285768 0.0851384
624 15.999 3 0.541132 0.282245 0.0798618
625 47.867 2 0.608539 0.284427 0.0852174
626 15.999 3 0.635583 0.278258 0.0802394
627 15.999 3 0.672317 0.287175 0.0875072
629 15.999 3 0.780954 0.283842 0.0829839
630 15.999 3 0.871791 0.279338 0.0843682
631 47.867 2 0.845736 0.286041 0.0834048
632 15.999 3 0.850036 0.285553 0.00151286
636 15.999 3 0.0494763 0.293154 0.0862057
637 47.867 2 0.112429 0.295597 0.087065
639 15.999 3 0.113654 0.295343 0.00341791
638 15.999 3 0.138242 0.289126 0.0861408
640 15.999 3 0.176682 0.298296 0.0850937
13344 87.62 1 0.198659 0.29136 0.00180314
618 47.867 2 0.292074 0.287365 0.0893032
620 15.999 3 0.294567 0.287374 0.00355873
641 15.999 3 0.270697 0.294015 0.0847754
642 15.999 3 0.359309 0.290101 0.0819194
644 87.62 1 0.342779 0.295968 0.00179494
645 47.867 2 0.425845 0.292634 0.0811964
646 15.999 3 0.491836 0.294971 0.0867961
647 15.999 3 0.429565 0.292203 0.000332487
648 15.999 3 0.583395 0.291133 0.0851263
649 47.867 2 0.561802 0.297266 0.0837359
13350 87.62 1 0.516495 0.288706 0.000470861
652 15.999 3 0.729478 0.296722 0.0834257
653 87.62 1 0.758784 0.289662 0.00340494
654 15.999 3 0.823328 0.292368 0.0814134
674 47.867 2 0.794391 0.298806 0.0826386
655 87.62 1 0.88967 0.295161 0.00217109
656 15.999 3 0.914733 0.288533 0.0864896
657 47.867 2 0.980966 0.290791 0.089608
658 15.999 3 0.957944 0.297546 0.0883446
13357 15.999 3 0.981659 0.290611 0.00337252
659 15.999 3 0.0850701 0.301735 0.0841424
660 47.867 2 0.0645515 0.308153 0.0821256
13361 15.999 3 0.0616094 0.308486 0.00207352
661 47.867 2 0.247928 0.300363 0.0823738
662 15.999 3 0.22003 0.306727 0.0862281
13365 15.999 3 0.244406 0.300027 0.000335175
663 15.999 3 0.31084 0.303033 0.082186
13369 87.62 1 0.284969 0.309032 0.000155051
643 15.999 3 0.403681 0.299063 0.0796409
664 47.867 2 0.379064 0.305357 0.0845069
665 15.999 3 0.446414 0.307957 0.0837183
13371 15.999 3 0.376881 0.305447 0.000573396
666 47.867 2 0.513204 0.310076 0.0826351
667 15.999 3 0.512342 0.309847 0.000287311
670 15.999 3 0.537065 0.303206 0.0868226
669 15.999 3 0.629003 0.299495 0.0793153
671 15.999 3 0.669328 0.308571 0.0872718
672 47.867 2 0.693418 0.302404 0.079671
673 15.999 3 0.766561 0.30496 0.086538
675 15.999 3 0.865656 0.301089 0.0814897
13354 15.999 3 0.800508 0.299069 0.00169648
13382 87.62 1 0.836836 0.30748 0.00207773
676 15.999 3 0.997793 0.306188 0.0840888
677 47.867 2 0.932084 0.303896 0.083943
679 15.999 3 0.906097 0.309958 0.0814363
681 15.999 3 0.0393918 0.315049 0.0821026
720 47.867 2 0.0129325 0.321293 0.0788719
680 15.999 3 0.130984 0.310483 0.0834935
682 47.867 2 0.196965 0.313052 0.0827086
683 15.999 3 0.172794 0.319391 0.0783999
684 15.999 3 0.261831 0.315576 0.0904
685 47.867 2 0.325626 0.318329 0.0860295
686 15.999 3 0.354466 0.311582 0.0866023
13394 15.999 3 0.330193 0.317897 0.00238693
687 15.999 3 0.394697 0.320918 0.0831224
688 15.999 3 0.491653 0.316495 0.0821924
689 87.62 1 0.417605 0.314072 0.00162693
690 15.999 3 0.579562 0.312277 0.082658
691 15.999 3 0.61786 0.321668 0.0780697
692 47.867 2 0.645364 0.314975 0.0861441
693 15.999 3 0.712531 0.317208 0.0757045
13400 15.999 3 0.645135 0.314854 0.000199341
694 15.999 3 0.819352 0.314339 0.0835083
695 47.867 2 0.881299 0.31676 0.0833137
696 15.999 3 0.948775 0.318988 0.0823372
13410 87.62 1 0.973432 0.312805 0.00306508
697 15.999 3 0.0790245 0.323943 0.0799187
698 15.999 3 0.120913 0.332793 0.0861082
700 87.62 1 0.0599731 0.330166 0.00105607
699 47.867 2 0.147459 0.326117 0.0813862
701 15.999 3 0.210774 0.328945 0.0816102
702 87.62 1 0.234877 0.322233 0.000461072
13415 15.999 3 0.14545 0.326284 0.00141531
703 47.867 2 0.279856 0.331415 0.0830225
704 15.999 3 0.302332 0.324634 0.0816807
705 87.62 1 0.370958 0.326891 0.00146517
706 47.867 2 0.463409 0.323467 0.0824763
707 15.999 3 0.435585 0.329682 0.08042
709 15.999 3 0.468249 0.323382 0.00397571
708 15.999 3 0.528118 0.326046 0.0818434
710 47.867 2 0.592602 0.328305 0.0824847
711 15.999 3 0.593122 0.328618 0.000625334
13423 87.62 1 0.502355 0.332003 0.00105683
712 15.999 3 0.662645 0.330552 0.0828017
713 47.867 2 0.725783 0.333201 0.0810364
13429 87.62 1 0.685021 0.323287 0.000985363
714 15.999 3 0.762118 0.327586 0.0842513
716 15.999 3 0.857754 0.32339 0.0881004
717 47.867 2 0.830513 0.329972 0.0873114
718 15.999 3 0.899002 0.332597 0.0831067
721 15.999 3 0.988296 0.32823 0.0863559
723 47.867 2 0.0997298 0.339613 0.0864109
724 15.999 3 0.0336519 0.337342 0.0863033
725 15.999 3 0.163738 0.34161 0.0835066
726 47.867 2 0.229543 0.344028 0.0810872
13439 15.999 3 0.234936 0.3441 0.000788085
727 15.999 3 0.258219 0.337989 0.0845146
729 15.999 3 0.344977 0.333801 0.078847
730 15.999 3 0.391654 0.34269 0.0843753
731 47.867 2 0.414873 0.336226 0.0803733
732 15.999 3 0.478647 0.338159 0.0823471
733 15.999 3 0.572431 0.334772 0.0895224
734 47.867 2 0.543283 0.341156 0.0857116
735 15.999 3 0.611375 0.343247 0.0825706
13449 15.999 3 0.543474 0.341264 0.00130191
715 15.999 3 0.72979 0.333419 0.00132382
736 87.62 1 0.635021 0.337239 0.00472584
737 15.999 3 0.701122 0.339666 0.0823406
738 15.999 3 0.79725 0.335864 0.0820009
13453 87.62 1 0.766654 0.341959 0.0042867
740 47.867 2 0.96573 0.33479 0.0841048
741 15.999 3 0.944711 0.341391 0.0794331
742 15.999 3 0.963862 0.334697 0.00304616
743 15.999 3 0.0780302 0.346075 0.0818284
744 47.867 2 0.0513962 0.353003 0.0825891
745 15.999 3 0.115766 0.355265 0.0856406
746 15.999 3 0.0520334 0.353011 0.000184567
747 15.999 3 0.204218 0.3505 0.0769422
13459 87.62 1 0.136535 0.348652 0.00235391
748 87.62 1 0.27131 0.353099 0.000157115
749 15.999 3 0.298103 0.347201 0.0868634
750 47.867 2 0.366998 0.349194 0.0831875
751 15.999 3 0.343097 0.355845 0.0809592
752 15.999 3 0.367304 0.348842 0.00148869
753 15.999 3 0.432767 0.351717 0.0839743
754 47.867 2 0.496137 0.35405 0.0854018
755 15.999 3 0.519445 0.347742 0.0785387