LAMMPS data file via write_data, version 17 Apr 2024, timestep = 26, units = metal

14040 atoms
3 atom types

-0.43791032989172146 237.95836339656964 xlo xhi
-46.89093453521436 46.89093453521436 ylo yhi
0.014373493195701366 7.8756265068042985 zlo zhi

Masses

1 87.62
2 47.867
3 15.999

Atoms # charge

7261 2 2.4 0.8068617687007024 -46.33900016203285 1.979686746597851 0 0 0
7263 3 -1.2 0.8071048700509343 -46.33639376612507 0.014373493195703848 0 0 0
7332 3 -1.2 1.7095538126227032 -44.57103607405118 1.9796867465978523 0 0 0
10773 3 -1.2 0.8071048700509406 -46.33639376612508 3.944999999999996 0 0 0
10839 1 1.2 -0.04409923844363049 -43.68179567831285 3.945000000000005 0 0 0
7336 3 -1.2 4.363610581747623 -43.68885121122399 1.979686746597847 0 0 0
7337 3 -1.2 5.215639938542585 -46.342784905526706 1.9796867465978492 0 0 0
7335 2 2.4 6.115217804062371 -44.571345115639595 1.9796867465978523 0 0 0
7341 3 -1.2 7.864336559559149 -45.45810518178173 1.9796867465978516 0 0 0
7340 2 2.4 9.619778092099615 -46.343154222823635 1.9796867465978507 0 0 0
7343 3 -1.2 9.618547593206005 -46.339932045740994 7.875626506804295 0 0 -1
7425 3 -1.2 10.520034530846203 -44.5741348425981 1.9796867465978516 0 0 0
7427 1 1.2 12.267805339308387 -45.46020003851926 0.01437349319570207 0 0 0
10853 3 -1.2 9.618547593206012 -46.339932045740994 3.9450000000000047 0 0 0
10937 1 1.2 12.26780533930839 -45.46020003851926 3.944999999999996 0 0 0
7428 2 2.4 14.921817591980785 -44.573309827842984 1.979686746597854 0 0 0
7429 3 -1.2 13.173466103752066 -43.691210730597085 1.9796867465978525 0 0 0
7430 3 -1.2 14.022819056683351 -46.345228330399564 1.9796867465978476 0 0 0
7433 2 2.4 18.423454511528337 -46.343800940306494 1.9796867465978514 0 0 0
7434 3 -1.2 16.66954627214538 -45.46103037748284 1.9796867465978478 0 0 0
7527 1 1.2 17.573628312303182 -43.685521856266504 7.875626506804295 0 0 -1
10946 3 -1.2 18.422162450785798 -46.34205215172187 3.9449999999999967 0 0 0
11037 1 1.2 17.573628312303182 -43.685521856266504 3.945 0 0 0
7530 3 -1.2 19.32306029589554 -44.57314488629795 1.9796867465978496 0 0 0
7532 1 1.2 21.069207407567333 -45.45938425709789 7.875626506804291 0 0 -1
7534 3 -1.2 21.976469486312062 -43.689659813730785 1.9796867465978476 0 0 0
11042 1 1.2 21.069207407567333 -45.45938425709789 3.9450000000000047 0 0 0
7533 2 2.4 23.72489178128219 -44.57421307049057 1.9796867465978496 0 0 0
7535 3 -1.2 22.82555667663004 -46.34526832481594 1.9796867465978514 0 0 0
7539 3 -1.2 25.471931443663042 -45.46270847804087 1.9796867465978503 0 0 0
11046 3 -1.2 23.72354280991496 -44.571190612162255 3.9450000000000025 0 0 0
7538 2 2.4 27.225734082423653 -46.34548914103355 1.979686746597857 0 0 0
7648 3 -1.2 28.12545432654895 -44.57421084184603 1.9796867465978536 0 0 0
11051 3 -1.2 27.225869025957522 -46.34342834392223 3.9449999999999985 0 0 0
11155 1 1.2 26.37667286807058 -43.68761679696759 3.944999999999998 0 0 0
7650 1 1.2 29.87199788803436 -45.460955729699855 0.014373493195701366 0 0 0
7652 3 -1.2 30.777716137635302 -43.68986611603854 1.9796867465978563 0 0 0
7653 3 -1.2 31.627936597374482 -46.34642980287273 1.9796867465978523 0 0 0
11160 1 1.2 29.871997888034333 -45.460955729699855 3.9449999999999985 0 0 0
7651 2 2.4 32.526092334633056 -44.5751331350381 1.979686746597852 0 0 0
7657 3 -1.2 34.27454446161157 -45.46472169590089 1.9796867465978485 0 0 0
11164 3 -1.2 32.526379002134334 -44.57318967030563 3.9449999999999967 0 0 0
7656 2 2.4 36.02929029754731 -46.349426110180154 1.979686746597851 0 0 0
7659 3 -1.2 36.029534805906174 -46.34724764500873 7.875626506804294 0 0 -1
7777 3 -1.2 36.92753409777416 -44.57934891638458 1.9796867465978487 0 0 0
7779 1 1.2 38.67537828244155 -45.46666453593357 7.875626506804298 0 0 -1
11169 3 -1.2 36.02953480590617 -46.34724764500873 3.945000000000003 0 0 0
11289 1 1.2 38.67537828244155 -45.46666453593357 3.9449999999999994 0 0 0
7780 2 2.4 41.32818108177263 -44.581600665485894 1.9796867465978547 0 0 0
7781 3 -1.2 39.57899764611469 -43.69666489673752 1.9796867465978503 0 0 0
7782 3 -1.2 40.43150891787429 -46.35226531768666 1.9796867465978483 0 0 0
7783 3 -1.2 41.32855919940824 -44.57985761127111 0.014373493195705465 0 0 0
11293 3 -1.2 41.32855919940824 -44.579857611271116 3.9449999999999963 0 0 0
7785 2 2.4 44.83379867864594 -46.354529968751024 1.9796867465978534 0 0 0
7786 3 -1.2 43.078507958215454 -45.47072011423193 1.9796867465978472 0 0 0
7904 1 1.2 43.979383364325315 -43.69855377068539 7.875626506804298 0 0 -1
11298 3 -1.2 44.83391670176689 -46.35209771106048 3.945000000000005 0 0 0
11414 1 1.2 43.979383364325315 -43.698553770685386 3.9450000000000003 0 0 0
7907 3 -1.2 45.730770588460445 -44.58470621877027 1.9796867465978487 0 0 0
7909 1 1.2 47.48015659346491 -45.470195500659806 0.014373493195701366 0 0 0
7911 3 -1.2 48.38287359023815 -43.700690148298534 1.9796867465978434 0 0 0
11419 1 1.2 47.4801565934649 -45.47019550065981 3.944999999999995 0 0 0
7910 2 2.4 50.13390161113033 -44.584039900822496 1.9796867465978514 0 0 0
7912 3 -1.2 49.238257968921275 -46.35418982554336 1.979686746597849 0 0 0
7913 3 -1.2 50.13381253061722 -44.58276765906594 0.014373493195701366 0 0 0
11423 3 -1.2 50.13381253061721 -44.58276765906594 3.945000000000003 0 0 0
7916 3 -1.2 51.88689058595164 -45.47243976575624 1.9796867465978545 0 0 0
7915 2 2.4 53.64458415677464 -46.354812241172176 1.979686746597851 0 0 0
7918 3 -1.2 53.6445367383681 -46.35275388404723 7.875626506804295 0 0 -1
8037 3 -1.2 54.54185066390145 -44.5850440298423 1.9796867465978492 0 0 0
11428 3 -1.2 53.6445367383681 -46.35275388404723 3.9450000000000025 0 0 0
11544 1 1.2 52.78674100478126 -43.70029147777937 3.9449999999999985 0 0 0
8041 3 -1.2 57.19768570026203 -43.70174030986711 1.979686746597849 0 0 0
8042 3 -1.2 58.05657001736433 -46.35422413166427 1.979686746597848 0 0 0
11549 1 1.2 56.294461151182276 -45.4706934410843 3.945 0 0 0
8040 2 2.4 58.95211756220132 -44.58455912164078 1.9796867465978496 0 0 0
8046 3 -1.2 60.70869313835958 -45.47324540776909 1.9796867465978532 0 0 0
11674 1 1.2 61.60883807700543 -43.70059964914813 3.945000000000001 0 0 0
8045 2 2.4 62.46969230637723 -46.35563804850482 1.9796867465978494 0 0 0
8167 3 -1.2 63.36707559167314 -44.585680581712346 1.9796867465978454 0 0 0
8170 2 2.4 67.7831887328832 -44.58599462496197 1.9796867465978534 0 0 0
8171 3 -1.2 66.0260120369559 -43.70263742330618 1.9796867465978452 0 0 0
8172 3 -1.2 66.88741653501354 -46.35573290582382 1.97968674659785 0 0 0
8175 2 2.4 71.30499468364363 -46.35754526616676 1.9796867465978516 0 0 0
8176 3 -1.2 69.5418564825646 -45.47489013910172 1.9796867465978485 0 0 0
8294 1 1.2 70.44242117633226 -43.70221734226099 0.014373493195702634 0 0 0
11688 3 -1.2 71.30490216614743 -46.35541774285571 3.945000000000008 0 0 0
11804 1 1.2 70.44242117633226 -43.70221734226098 3.944999999999997 0 0 0
8297 3 -1.2 72.2023526559355 -44.58734957292608 1.9796867465978496 0 0 0
8300 2 2.4 76.62190676083148 -44.58765331983147 1.979686746597844 0 0 0
8301 3 -1.2 74.86307732690638 -43.70410554676185 1.9796867465978465 0 0 0
8302 3 -1.2 75.72591883982484 -46.35728648838084 1.9796867465978558 0 0 0
8303 3 -1.2 76.62181050794553 -44.58626154246733 7.875626506804293 0 0 -1
11813 3 -1.2 76.62181050794553 -44.58626154246732 3.9450000000000056 0 0 0
8305 2 2.4 80.14727900865556 -46.358759630183506 1.9796867465978576 0 0 0
8306 3 -1.2 78.38220936224391 -45.47616090039183 1.9796867465978514 0 0 0
8424 1 1.2 79.28301162472917 -43.703670360023025 0.014373493195705309 0 0 0
8427 3 -1.2 81.04497536568029 -44.58854342317368 1.9796867465978547 0 0 0
11934 1 1.2 79.28301162472918 -43.703670360023025 3.944999999999993 0 0 0
8431 3 -1.2 83.70820835593155 -43.70490429747464 1.979686746597842 0 0 0
11939 1 1.2 82.80441518080322 -45.474478511945115 3.9450000000000043 0 0 0
8430 2 2.4 85.46912552083157 -44.58832325928808 1.9796867465978487 0 0 0
8432 3 -1.2 84.57261201877299 -46.35797620404038 1.9796867465978314 0 0 0
8433 3 -1.2 85.46906375459244 -44.58681170974991 7.875626506804292 0 0 -1
8436 3 -1.2 87.23104702350214 -45.476666017864716 1.9796867465978623 0 0 0
11943 3 -1.2 85.46906375459244 -44.58681170974991 3.945000000000004 0 0 0
8435 2 2.4 88.99776630255043 -46.35910278257973 1.9796867465978443 0 0 0
8438 3 -1.2 88.99759421622983 -46.356748897042294 7.875626506804289 0 0 -1
8554 1 1.2 88.13256707199136 -43.70411301044971 7.875626506804298 0 0 -1
8557 3 -1.2 89.89580139541425 -44.58887789977014 1.9796867465978492 0 0 0
11948 3 -1.2 88.99759421622984 -46.356748897042294 3.9450000000000074 0 0 0
12064 1 1.2 88.13256707199136 -43.704113010449696 3.9449999999999954 0 0 0
8561 3 -1.2 92.56026246085786 -43.70509635636045 1.9796867465978552 0 0 0
8562 3 -1.2 93.42519980612717 -46.35809916721834 1.9796867465978567 0 0 0
12069 1 1.2 91.65638103466148 -45.474655757051046 3.94499999999999 0 0 0
8560 2 2.4 94.321945104842 -44.5884279370662 1.9796867465978494 0 0 0
8566 3 -1.2 96.08420100220908 -45.47673865005099 1.9796867465978427 0 0 0
8684 1 1.2 96.98592853405142 -43.70416102254496 7.875626506804298 0 0 -1
12194 1 1.2 96.9859285340514 -43.70416102254495 3.944999999999998 0 0 0
8565 2 2.4 97.85127275330984 -46.359141753493155 1.9796867465978618 0 0 0
8687 3 -1.2 98.74933714369863 -44.5889163483108 1.9796867465978474 0 0 0
8690 2 2.4 103.17572258521231 -44.5884424533359 1.9796867465978434 0 0 0
8691 3 -1.2 101.41394791949782 -43.70509703254486 1.9796867465978585 0 0 0
8692 3 -1.2 102.27894083560385 -46.358104807092445 1.9796867465978492 0 0 0
8693 3 -1.2 103.17571491167475 -44.58681162822994 7.875626506804297 0 0 -1
12203 3 -1.2 103.17571491167473 -44.58681162822993 3.945000000000002 0 0 0
8695 2 2.4 106.70507848782316 -46.359163497993315 1.979686746597851 0 0 0
8696 3 -1.2 104.9379740718248 -45.47673674802638 1.9796867465978503 0 0 0
12324 1 1.2 105.83973929375063 -43.70416899353264 3.945000000000004 0 0 0
8817 3 -1.2 107.60313178380136 -44.588914608924654 1.9796867465978554 0 0 0
8819 1 1.2 109.36390010408721 -45.47468291928102 7.875626506804298 0 0 -1
8821 3 -1.2 110.2677478602761 -43.70510139946182 1.979686746597841 0 0 0
12329 1 1.2 109.36390010408718 -45.47468291928102 3.944999999999999 0 0 0
8820 2 2.4 112.0295433661196 -44.58846041493261 1.9796867465978525 0 0 0
8822 3 -1.2 111.13276741498788 -46.35810212127047 1.979686746597843 0 0 0
8826 3 -1.2 113.79179022021516 -45.476723105138404 1.979686746597864 0 0 0
8825 2 2.4 115.5588911413751 -46.359185934286536 1.9796867465978503 0 0 0
8947 3 -1.2 116.45695069702215 -44.588906426261076 1.9796867465978494 0 0 0
8951 3 -1.2 119.12155900970787 -43.70509530576318 1.9796867465978525 0 0 0
8952 3 -1.2 119.98658845799844 -46.35809404540446 1.97968674659785 0 0 0
8950 2 2.4 120.88335509512281 -44.588481764409195 1.9796867465978425 0 0 0
8953 3 -1.2 120.8833447421608 -44.58680505639416 7.875626506804298 0 0 -1
8956 3 -1.2 122.64560704104774 -45.47671193144339 1.9796867465978571 0 0 0
9074 1 1.2 123.54736640023712 -43.70417810081879 0.014373493195704723 0 0 0
12463 3 -1.2 120.8833447421608 -44.58680505639416 3.9449999999999985 0 0 0
12584 1 1.2 123.54736640023712 -43.70417810081878 3.944999999999993 0 0 0
8955 2 2.4 124.41271113183528 -46.359198381435114 1.9796867465978438 0 0 0
8958 3 -1.2 124.41256216343196 -46.35671461928617 7.875626506804297 0 0 -1
9077 3 -1.2 125.31077666033092 -44.588899210257345 1.9796867465978487 0 0 0
12468 3 -1.2 124.41256216343197 -46.35671461928619 3.9449999999999994 0 0 0
9079 1 1.2 127.07152471951537 -45.47468946739881 7.875626506804294 0 0 -1
9080 2 2.4 129.7371723044441 -44.588493253158546 1.9796867465978558 0 0 0
9081 3 -1.2 127.97537731277542 -43.705076286434675 1.9796867465978465 0 0 0
9082 3 -1.2 128.84039275698163 -46.358083783631365 1.9796867465978487 0 0 0
9083 3 -1.2 129.73715767718656 -44.58679922993027 7.875626506804282 0 0 -1
12589 1 1.2 127.07152471951532 -45.474689467398804 3.9450000000000016 0 0 0
12593 3 -1.2 129.73715767718653 -44.586799229930264 3.9450000000000154 0 0 0
9085 2 2.4 133.26653200255146 -46.35920532059627 1.9796867465978385 0 0 0
9086 3 -1.2 131.49941351422052 -45.47671470693011 1.9796867465978514 0 0 0
9207 3 -1.2 134.16458742040706 -44.588891420587395 1.9796867465978458 0 0 0
9209 1 1.2 135.92535250024602 -45.474697758252894 7.875626506804298 0 0 -1
12719 1 1.2 135.92535250024602 -45.474697758252894 3.944999999999999 0 0 0
9210 2 2.4 138.59099324106057 -44.58850089377421 1.97968674659785 0 0 0
9211 3 -1.2 136.8291890181586 -43.705071644327425 1.9796867465978476 0 0 0
9212 3 -1.2 137.69420443869882 -46.35807769478454 1.979686746597856 0 0 0
9213 3 -1.2 138.59096981459743 -44.58679291858381 0.014373493195703255 0 0 0
12723 3 -1.2 138.5909698145974 -44.58679291858382 3.9449999999999985 0 0 0
9215 2 2.4 142.12032854522312 -46.3592173658639 1.979686746597854 0 0 0
9216 3 -1.2 140.35321305646883 -45.476716440311314 1.9796867465978498 0 0 0
9337 3 -1.2 143.0183690026326 -44.58888366549834 1.9796867465978432 0 0 0
12844 1 1.2 141.25500193284216 -43.7041923747872 3.9449999999999985 0 0 0
9341 3 -1.2 145.68292559881064 -43.70508834114104 1.9796867465978611 0 0 0
9340 2 2.4 147.44468963294057 -44.588517565448655 1.9796867465978536 0 0 0
9342 3 -1.2 146.54792142605936 -46.35808286092967 1.9796867465978452 0 0 0
9343 3 -1.2 147.44466895208117 -44.58678297902264 7.875626506804278 0 0 -1
9346 3 -1.2 149.20675657760063 -45.476736324720754 1.9796867465978312 0 0 0
12853 3 -1.2 147.44466895208117 -44.58678297902264 3.9450000000000167 0 0 0
9345 2 2.4 150.97367571614205 -46.359256183789356 1.9796867465978427 0 0 0
9467 3 -1.2 151.87164854171354 -44.588900788531156 1.9796867465978663 0 0 0
12974 1 1.2 150.10855962722846 -43.704208003747 3.945000000000004 0 0 0
9470 2 2.4 156.29677032728722 -44.588582233335906 1.979686746597862 0 0 0
9471 3 -1.2 154.5356273243817 -43.70514196844841 1.9796867465978456 0 0 0
9472 3 -1.2 155.40014797858618 -46.358178920989644 1.979686746597842 0 0 0
9476 3 -1.2 158.05776239187773 -45.47690932056325 1.9796867465978463 0 0 0
9594 1 1.2 158.95954070413677 -43.70423081634075 7.875626506804293 0 0 -1
13104 1 1.2 158.95954070413677 -43.70423081634073 3.9450000000000043 0 0 0
9475 2 2.4 159.82345451834104 -46.35945541020468 1.9796867465978527 0 0 0
9478 3 -1.2 159.82336150863262 -46.35680318047536 0.014373493195706964 0 0 0
9597 3 -1.2 160.72123159791337 -44.58900324444454 1.979686746597843 0 0 0
9599 1 1.2 162.4799865610787 -45.474948224627525 0.014373493195702454 0 0 0
12988 3 -1.2 159.82336150863262 -46.35680318047536 3.9449999999999923 0 0 0
13109 1 1.2 162.47998656107876 -45.47494822462754 3.9449999999999967 0 0 0
9600 2 2.4 165.14269784169028 -44.588693251872236 1.9796867465978505 0 0 0
9601 3 -1.2 163.38332301957618 -43.70515612771937 1.9796867465978736 0 0 0
9602 3 -1.2 164.2462257178822 -46.35851006234968 1.979686746597854 0 0 0
9603 3 -1.2 165.14262756738606 -44.58684268056397 7.8756265068042755 0 0 -1
13113 3 -1.2 165.1426275673861 -44.58684268056399 3.945000000000025 0 0 0
9605 2 2.4 168.66562198149674 -46.35979516631453 1.979686746597831 0 0 0
9606 3 -1.2 166.90179150714536 -45.47711497897936 1.9796867465978656 0 0 0
9608 3 -1.2 168.66543878814807 -46.35722505598142 0.01437349319570783 0 0 0
13118 3 -1.2 168.66543878814804 -46.35722505598142 3.9449999999999914 0 0 0
9727 3 -1.2 169.5634972634836 -44.589106132547705 1.9796867465978525 0 0 0
9729 1 1.2 171.32065519716548 -45.47514992776995 7.87562650680429 0 0 -1
9731 3 -1.2 172.224110533736 -43.705009434740646 1.979686746597837 0 0 0
13239 1 1.2 171.32065519716537 -45.47514992776995 3.9450000000000047 0 0 0
9730 2 2.4 173.9819167716415 -44.58852842786197 1.9796867465978512 0 0 0
9732 3 -1.2 173.08525688001265 -46.35869412199729 1.9796867465978472 0 0 0
9733 3 -1.2 173.98188252190627 -44.58667790580537 0.01437349319570357 0 0 0
9736 3 -1.2 175.73922623978996 -45.476937853390204 1.9796867465978483 0 0 0
13243 3 -1.2 173.98188252190627 -44.58667790580535 3.9449999999999994 0 0 0
9735 2 2.4 177.50119778692144 -46.359593003703395 1.9796867465978492 0 0 0
9857 3 -1.2 178.3992267851966 -44.58870456648889 1.9796867465978525 0 0 0
9859 1 1.2 180.15448636054163 -45.474652234387335 7.875626506804291 0 0 -1
9861 3 -1.2 181.0578806626704 -43.70430022913903 1.9796867465978487 0 0 0
9862 3 -1.2 181.91677662882546 -46.35802334160184 1.9796867465978474 0 0 0
13369 1 1.2 180.15448636054163 -45.474652234387335 3.9450000000000047 0 0 0
9860 2 2.4 182.8134584935812 -44.587587586242044 1.9796867465978458 0 0 0
9866 3 -1.2 184.56842324965746 -45.47590961221354 1.9796867465978536 0 0 0
13373 3 -1.2 182.81355650940074 -44.58577332590448 3.9450000000000016 0 0 0
13494 1 1.2 185.47061058019227 -43.702476116560206 3.9449999999999963 0 0 0
9865 2 2.4 186.3279411670383 -46.35836283977424 1.9796867465978558 0 0 0
9987 3 -1.2 187.2259967951492 -44.58735375239965 1.9796867465978563 0 0 0
9990 2 2.4 191.63462319256047 -44.58589553665215 1.9796867465978563 0 0 0
9991 3 -1.2 189.88181127445773 -43.702648311205884 1.9796867465978267 0 0 0
9992 3 -1.2 190.7379462516231 -46.3564901187155 1.979686746597862 0 0 0
9995 2 2.4 195.1443347257285 -46.35678395234924 1.9796867465978552 0 0 0
9996 3 -1.2 193.38716319156853 -45.47393337153635 1.9796867465978505 0 0 0
10112 3 -1.2 196.0435614439768 -44.58574550619996 1.9796867465978558 0 0 0
10116 3 -1.2 198.69887094229566 -43.70048434012022 1.9796867465978532 0 0 0
10115 2 2.4 200.45040579657595 -44.583611246109506 1.9796867465978485 0 0 0
10117 3 -1.2 199.55204828247372 -46.354584752499775 1.9796867465978505 0 0 0
10120 2 2.4 203.95750600709604 -46.35369254891766 1.9796867465978503 0 0 0
10121 3 -1.2 202.20177988602313 -45.47112723989581 1.979686746597843 0 0 0
10123 3 -1.2 203.9568412710483 -46.351328979131075 7.875626506804297 0 0 -1
10221 1 1.2 203.1061425312444 -43.69750229903009 0.014373493195709575 0 0 0
10224 3 -1.2 204.858094616631 -44.5819273866656 1.9796867465978523 0 0 0
13633 3 -1.2 203.95684127104826 -46.35132897913106 3.945000000000001 0 0 0
13731 1 1.2 203.10614253124447 -43.697502299030084 3.9449999999999905 0 0 0
10226 1 1.2 206.60891106607937 -45.46668988928525 7.875626506804297 0 0 -1
10228 3 -1.2 207.51369367329156 -43.695183868787936 1.9796867465978292 0 0 0
10229 3 -1.2 208.364854784403 -46.349288940206144 1.9796867465978394 0 0 0
13736 1 1.2 206.60891106607937 -45.46668988928525 3.9450000000000007 0 0 0
10227 2 2.4 209.26536039368142 -44.578110799110064 1.9796867465978483 0 0 0
10233 3 -1.2 211.01473468837116 -45.46475443355181 1.9796867465978627 0 0 0
13740 3 -1.2 209.2646871121585 -44.576403587936966 3.9450000000000047 0 0 0
10232 2 2.4 212.7702226323361 -46.34654906146505 1.9796867465978494 0 0 0
10324 3 -1.2 213.6702726730612 -44.57441858544837 1.979686746597856 0 0 0
10326 1 1.2 215.42085184391217 -45.45792982605979 0.014373493195708575 0 0 0
10327 2 2.4 218.07590777515597 -44.56934605088779 1.9796867465978543 0 0 0
10328 3 -1.2 216.32511849537357 -43.68743288139286 1.9796867465978398 0 0 0
10329 3 -1.2 217.17568353562416 -46.34103160035728 1.9796867465978472 0 0 0
10330 3 -1.2 218.07493074149775 -44.56806638932364 7.875626506804293 0 0 -1
13836 1 1.2 215.42085184391217 -45.45792982605979 3.9449999999999896 0 0 0
13840 3 -1.2 218.07493074149778 -44.56806638932363 3.945000000000006 0 0 0
10333 3 -1.2 219.8264694353977 -45.45633782320655 1.979686746597851 0 0 0
10332 2 2.4 221.5809620574696 -46.33958572716102 1.9796867465978412 0 0 0
10335 3 -1.2 221.58049104165815 -46.33805900399073 0.014373493195702301 0 0 0
13845 3 -1.2 221.58049104165812 -46.338059003990715 3.9450000000000016 0 0 0
10411 3 -1.2 222.4809050096029 -44.568997402492215 1.979686746597863 0 0 0
10413 1 1.2 224.23086440634015 -45.45408155036004 0.014373493195703742 0 0 0
13923 1 1.2 224.23086440634015 -45.45408155036004 3.944999999999995 0 0 0
10414 2 2.4 226.8856996153602 -44.56572089266602 1.9796867465978587 0 0 0
10415 3 -1.2 225.13328049192748 -43.6842202380566 1.979686746597858 0 0 0
10416 3 -1.2 225.98640772763332 -46.336604849763845 1.9796867465978505 0 0 0
13927 3 -1.2 226.8838859739369 -44.56361741783485 3.9450000000000145 0 0 0
10419 2 2.4 230.390932619593 -46.33662968901645 1.9796867465978496 0 0 0
10420 3 -1.2 228.63645760945695 -45.45232210438645 1.979686746597844 0 0 0
10486 3 -1.2 231.2920538579198 -44.56677645670213 1.979686746597847 0 0 0
13932 3 -1.2 230.39020544689464 -46.3353028177487 3.9449999999999856 0 0 0
10488 1 1.2 233.04210833887757 -45.4521416374511 0.014373493195702473 0 0 0
10490 3 -1.2 233.94587059658036 -43.68334557745658 1.9796867465978518 0 0 0
13998 1 1.2 233.04210833887757 -45.452141637451106 3.9449999999999976 0 0 0
10489 2 2.4 235.69701598977582 -44.56525796628454 1.979686746597851 0 0 0
10491 3 -1.2 234.79936474328298 -46.336702437423405 1.979686746597854 0 0 0
10494 3 -1.2 237.44851971779215 -45.453926166730874 1.9796867465978512 0 0 0
7330 2 2.4 2.6187744004226836 -42.80105343592931 1.9796867465978478 0 0 0
7331 3 -1.2 0.8715115640135108 -41.91520418254483 1.9796867465978831 0 0 0
7415 3 -1.2 3.53713786241166 -41.03091125057736 1.979686746597848 0 0 0
7418 2 2.4 7.942029546700069 -41.026274305872754 1.9796867465978516 0 0 0
7420 3 -1.2 7.02404272920745 -42.79983523949319 1.9796867465978465 0 0 0
7421 3 -1.2 7.942406627787217 -41.02560024159577 7.875626506804292 0 0 -1
10931 3 -1.2 7.94240662778722 -41.02560024159577 3.9450000000000056 0 0 0
7424 3 -1.2 9.683979925105636 -41.916762745376765 1.9796867465978496 0 0 0
7423 2 2.4 11.428731351996054 -42.802219800606615 1.9796867465978487 0 0 0
7426 3 -1.2 11.428462050754963 -42.79963572209958 7.875626506804297 0 0 -1
7520 3 -1.2 12.34919117156839 -41.029963120546185 1.9796867465978507 0 0 0
10936 3 -1.2 11.42846205075497 -42.79963572209958 3.9450000000000034 0 0 0
7522 1 1.2 14.088164493900146 -41.91420628965503 0.014373493195701663 0 0 0
7525 3 -1.2 15.831605634467515 -42.80001031434381 1.9796867465978478 0 0 0
11032 1 1.2 14.088164493900148 -41.91420628965502 3.9449999999999967 0 0 0
7523 2 2.4 16.75038929654263 -41.02549715377156 1.9796867465978478 0 0 0
7529 3 -1.2 18.48895052334172 -41.91544353684408 1.979686746597848 0 0 0
7528 2 2.4 20.231887583605225 -42.8002358664622 1.9796867465978514 0 0 0
7531 3 -1.2 20.231990028008834 -42.798213013875376 0.014373493195702827 0 0 0
7638 3 -1.2 21.153087119243995 -41.0294426492609 1.9796867465978478 0 0 0
11041 3 -1.2 20.231990028008834 -42.798213013875376 3.944999999999999 0 0 0
7641 2 2.4 25.55377646183555 -41.025885981444716 1.9796867465978518 0 0 0
7643 3 -1.2 24.635113278659738 -42.80170553662722 1.9796867465978478 0 0 0
7647 3 -1.2 27.292290159804004 -41.91515893586008 1.979686746597845 0 0 0
7646 2 2.4 29.03457636874327 -42.799904550614826 1.979686746597847 0 0 0
7767 3 -1.2 29.95520954219713 -41.0263066095944 1.979686746597846 0 0 0
11159 3 -1.2 29.03478329587155 -42.798117116603954 3.945000000000005 0 0 0
7770 2 2.4 34.35440197427255 -41.02783290307162 1.9796867465978463 0 0 0
7772 3 -1.2 33.435467899421575 -42.80213216503222 1.9796867465978496 0 0 0
7775 2 2.4 37.836007535847266 -42.80595460660906 1.979686746597852 0 0 0
7776 3 -1.2 36.093059089718295 -41.919316767099524 1.9796867465978476 0 0 0
7778 3 -1.2 37.835784915226924 -42.80424988810187 7.875626506804297 0 0 -1
11288 3 -1.2 37.835784915226924 -42.80424988810187 3.9450000000000025 0 0 0
7897 3 -1.2 38.754897035427355 -41.032308360449285 1.9796867465978536 0 0 0
7899 1 1.2 40.491701629074825 -41.920728238505085 7.875626506804293 0 0 -1
11409 1 1.2 40.491701629074825 -41.920728238505085 3.9450000000000043 0 0 0
7900 2 2.4 43.15282655340271 -41.03521243294836 1.9796867465978527 0 0 0
7902 3 -1.2 42.235850802260494 -42.80881006632356 1.9796867465978496 0 0 0
7906 3 -1.2 44.89258981084402 -41.92554218349697 1.9796867465978527 0 0 0
7905 2 2.4 46.637519083012386 -42.81153191001771 1.9796867465978476 0 0 0
8027 3 -1.2 47.55514104388092 -41.037208331807726 1.9796867465978516 0 0 0
11418 3 -1.2 46.63737019610789 -42.80998292890694 3.9450000000000016 0 0 0
8029 1 1.2 49.2940292865554 -41.92514200453618 0.014373493195701366 0 0 0
8032 3 -1.2 51.041020570033005 -42.81140174348213 1.979686746597852 0 0 0
11539 1 1.2 49.2940292865554 -41.92514200453618 3.944999999999997 0 0 0
8030 2 2.4 51.95647210018696 -41.03803824887424 1.979686746597848 0 0 0
8033 3 -1.2 51.956331503767814 -41.03660444367989 7.875626506804297 0 0 -1
8036 3 -1.2 53.70045870520204 -41.9272644226713 1.9796867465978507 0 0 0
11543 3 -1.2 51.95633150376782 -41.03660444367989 3.9449999999999994 0 0 0
8035 2 2.4 55.4481324179477 -42.81261392992037 1.9796867465978445 0 0 0
8038 3 -1.2 55.44795306628871 -42.81108672711319 7.875626506804295 0 0 -1
8157 3 -1.2 56.3656235313373 -41.03804190885422 1.9796867465978547 0 0 0
8159 1 1.2 58.108712102531534 -41.92572037889028 0.014373493195701519 0 0 0
11548 3 -1.2 55.44795306628871 -42.81108672711321 3.945000000000002 0 0 0
11669 1 1.2 58.108712102531534 -41.92572037889029 3.9449999999999967 0 0 0
8160 2 2.4 60.77493944923597 -41.03813849284513 1.97968674659785 0 0 0
8162 3 -1.2 59.85948704743425 -42.81175713578813 1.9796867465978514 0 0 0
11673 3 -1.2 60.77466903098061 -41.03661293746262 3.9449999999999963 0 0 0
8165 2 2.4 64.27355467582036 -42.8134044931897 1.9796867465978503 0 0 0
8166 3 -1.2 62.522475525940806 -41.92731468318148 1.9796867465978587 0 0 0
8287 3 -1.2 65.19122122839524 -41.038726990751506 1.9796867465978552 0 0 0
8289 1 1.2 66.93738741523616 -41.926612675093075 7.875626506804292 0 0 -1
11799 1 1.2 66.93738741523616 -41.92661267509307 3.9450000000000047 0 0 0
8290 2 2.4 69.60636181312223 -41.039207405855876 1.9796867465978487 0 0 0
8292 3 -1.2 68.69063568123697 -42.81300775274228 1.979686746597856 0 0 0
8296 3 -1.2 71.35590583119432 -41.92846262373086 1.9796867465978387 0 0 0
8295 2 2.4 73.10910039397824 -42.81504246407846 1.979686746597857 0 0 0
8298 3 -1.2 73.10894725650226 -42.81314900868065 7.875626506804295 0 0 -1
8417 3 -1.2 74.02655129306544 -41.040369648162496 1.9796867465978454 0 0 0
11808 3 -1.2 73.10894725650226 -42.81314900868065 3.9450000000000047 0 0 0
8422 3 -1.2 77.52956069453934 -42.81479271885925 1.9796867465978465 0 0 0
8420 2 2.4 78.44562216437025 -41.040795088018065 1.9796867465978487 0 0 0
8426 3 -1.2 80.1969904055903 -41.929612741078635 1.979686746597852 0 0 0
11933 3 -1.2 78.44501607765635 -41.03896385933608 3.945 0 0 0
8425 2 2.4 81.9523348895398 -42.816144934818425 1.9796867465978512 0 0 0
8428 3 -1.2 81.9520225791324 -42.814224690729525 0.014373493195705798 0 0 0
8547 3 -1.2 82.8702943427824 -41.04148439089336 1.979686746597846 0 0 0
11938 3 -1.2 81.95202257913239 -42.814224690729525 3.9449999999999967 0 0 0
8549 1 1.2 84.62047531706253 -41.92925856958942 0.014373493195701366 0 0 0
8550 2 2.4 87.29408793918556 -41.04139150552247 1.9796867465978485 0 0 0
8552 3 -1.2 86.37734313404802 -42.815483034476856 1.97968674659785 0 0 0
8553 3 -1.2 87.29354137215017 -41.03939436647005 0.014373493195702679 0 0 0
12059 1 1.2 84.62047531706253 -41.92925856958943 3.944999999999998 0 0 0
12063 3 -1.2 87.29354137215017 -41.039394366470056 3.9449999999999967 0 0 0
8555 2 2.4 90.8035898175556 -42.81641556399305 1.9796867465978512 0 0 0
8556 3 -1.2 89.04683494004372 -41.93009683688926 1.9796867465978467 0 0 0
8677 3 -1.2 91.72185952507915 -41.04175259341263 1.9796867465978438 0 0 0
12189 1 1.2 93.47297427445737 -41.92938827793664 3.944999999999997 0 0 0
8680 2 2.4 96.14723541678045 -41.04145919946296 1.979686746597848 0 0 0
8682 3 -1.2 95.23029361488331 -42.81559247497832 1.979686746597848 0 0 0
12193 3 -1.2 96.14675312168093 -41.039403796036005 3.9450000000000025 0 0 0
8685 2 2.4 99.65720145765472 -42.816455889422095 1.979686746597855 0 0 0
8686 3 -1.2 97.90022023648902 -41.93015239429343 1.9796867465978458 0 0 0
8688 3 -1.2 99.65702711163814 -42.81434069214644 7.875626506804296 0 0 -1
8807 3 -1.2 100.57549707159917 -41.04177278657532 1.9796867465978543 0 0 0
12198 3 -1.2 99.65702711163812 -42.81434069214644 3.9450000000000043 0 0 0
8809 1 1.2 102.32670785100011 -41.92940185827656 0.014373493195703498 0 0 0
12319 1 1.2 102.32670785100012 -41.92940185827658 3.9449999999999963 0 0 0
8812 3 -1.2 104.08407062032887 -42.81560372986922 1.9796867465978456 0 0 0
8810 2 2.4 105.0010207792954 -41.04148386523029 1.9796867465978498 0 0 0
8816 3 -1.2 106.75402255378219 -41.93013882776438 1.9796867465978527 0 0 0
8815 2 2.4 108.51102158233205 -42.81646874729549 1.9796867465978492 0 0 0
8937 3 -1.2 109.4293184776461 -41.041773436812846 1.9796867465978416 0 0 0
8940 2 2.4 113.85483426811543 -41.04149716570372 1.9796867465978518 0 0 0
8942 3 -1.2 112.93787494358058 -42.81560135053546 1.9796867465978538 0 0 0
8943 3 -1.2 113.85436177998854 -41.03939921560545 7.875626506804296 0 0 -1
12449 1 1.2 111.18052669115173 -41.92941106117608 3.945000000000002 0 0 0
12453 3 -1.2 113.85436177998855 -41.03939921560545 3.945000000000001 0 0 0
8946 3 -1.2 115.60782836743117 -41.93013487596211 1.979686746597846 0 0 0
8945 2 2.4 117.3648411334578 -42.8164764198753 1.979686746597848 0 0 0
9067 3 -1.2 118.28313265220491 -41.041768772248545 1.9796867465978447 0 0 0
9070 2 2.4 122.70865182961798 -41.041500362769256 1.9796867465978496 0 0 0
9072 3 -1.2 121.79168528118369 -42.815591453367986 1.9796867465978498 0 0 0
9073 3 -1.2 122.70817395190969 -41.03939102405779 7.87562650680429 0 0 -1
12583 3 -1.2 122.70817395190969 -41.03939102405779 3.9450000000000043 0 0 0
9075 2 2.4 126.21865233536218 -42.81649048150178 1.979686746597843 0 0 0
9076 3 -1.2 124.4616331461221 -41.93013551313682 1.9796867465978472 0 0 0
9078 3 -1.2 126.21846556589979 -42.81432665974056 7.875626506804293 0 0 -1
12588 3 -1.2 126.2184655658998 -42.81432665974056 3.9450000000000016 0 0 0
9197 3 -1.2 127.1369379363742 -41.04175409595894 1.9796867465978498 0 0 0
12709 1 1.2 128.8881653401539 -41.92941844562906 3.944999999999999 0 0 0
9200 2 2.4 131.562471382991 -41.0415110761048 1.9796867465978465 0 0 0
9202 3 -1.2 130.64551174001022 -42.815581628119496 1.979686746597849 0 0 0
9203 3 -1.2 131.56198802841524 -41.03938844902058 7.875626506804286 0 0 -1