LAMMPS data file via write_data, version 19 Nov 2024, timestep = 0, units =.1 metal
              
14040 atoms             
3 atom types            
              
0 237.520453066678 xlo xhi           
-47.5040906133356 47.5040906133356 ylo yhi           
0 7.89 zlo zhi           
              
Masses              
              
1 87.62             
2 47.867             
3 15.999             
              
Atoms # charge            
              
1 2 2.4 237.2926518062664 -23.000782000886566 1.9725 0 0 0      
2 3 -1.2 237.2926518062664 -23.000782000886566 0.0 0 0 0      
3 2 2.4 228.47136363502975 -23.000782000886538 1.9725 0 0 0      
4 3 -1.2 228.47136363502975 -23.000782000886538 0.0 0 0 0      
5 2 2.4 231.9998789035244 -21.23652436663921 1.9725 0 0 0      
6 3 -1.2 230.2356212692771 -22.118653183762888 1.9725 0 0 0      
7 3 -1.2 232.8820077206481 -23.00078200088656 1.9725 0 0 0      
8 3 -1.2 231.9998789035244 -21.23652436663921 0.0 0 0 0      
9 1 1.2 234.64626535489535 -22.118653183762895 0.0 0 0 0      
10 2 2.4 235.5283941720191 -19.47226673239188 1.9725 0 0 0      
11 3 -1.2 233.7641365377717 -20.35439554951556 1.9725 0 0 0      
12 3 -1.2 236.41052298914275 -21.23652436663923 1.9725 0 0 0      
13 3 -1.2 235.5283941720191 -19.47226673239188 0.0 0 0 0      
14 3 -1.2 237.2926518062664 -18.590137915268222 1.9725 0 0 0      
15 2 2.4 219.6500754637931 -23.00078200088656 1.9725 0 0 0      
16 3 -1.2 219.6500754637931 -23.00078200088656 0.0 0 0 0      
17 2 2.4 223.1785907322877 -21.23652436663921 1.9725 0 0 0      
18 3 -1.2 221.4143330980404 -22.118653183762866 1.9725 0 0 0      
19 3 -1.2 224.06071954941137 -23.000782000886538 1.9725 0 0 0      
20 3 -1.2 223.1785907322877 -21.23652436663921 0.0 0 0 0      
21 1 1.2 225.82497718365877 -22.118653183762866 0.0 0 0 0      
22 2 2.4 226.7071060007825 -19.472266732391866 1.9725 0 0 0      
23 3 -1.2 224.9428483665351 -20.354395549515537 1.9725 0 0 0      
24 3 -1.2 227.5892348179061 -21.236524366639195 1.9725 0 0 0      
25 3 -1.2 226.7071060007825 -19.472266732391866 0.0 0 0 0      
26 1 1.2 229.35349245215343 -20.354395549515537 0.0 0 0 0      
27 2 2.4 230.2356212692771 -17.708009098144537 1.9725 0 0 0      
28 3 -1.2 228.47136363502975 -18.59013791526821 1.9725 0 0 0      
29 3 -1.2 231.11775008640075 -19.472266732391866 1.9725 0 0 0      
30 3 -1.2 230.2356212692771 -17.708009098144537 0.0 0 0 0      
31 1 1.2 232.8820077206481 -18.59013791526821 0.0 0 0 0      
32 2 2.4 233.7641365377717 -15.943751463897208 1.9725 0 0 0      
33 3 -1.2 231.9998789035244 -16.82588028102088 1.9725 0 0 0      
34 3 -1.2 234.64626535489535 -17.708009098144537 1.9725 0 0 0      
35 3 -1.2 233.7641365377717 -15.943751463897208 0.0 0 0 0      
36 1 1.2 236.4105229891427 -16.82588028102088 0.0 0 0 0      
37 2 2.4 237.2926518062665 -14.179493829649864 1.9725 0 0 0      
38 3 -1.2 235.52839417201903 -15.06162264677355 1.9725 0 0 0      
39 3 -1.2 237.2926518062665 -14.179493829649864 0.0 0 0 0      
40 2 2.4 210.8287872925564 -23.00078200088656 1.9725 0 0 0      
41 3 -1.2 210.8287872925564 -23.00078200088656 0.0 0 0 0      
42 2 2.4 214.35730256105103 -21.23652436663923 1.9725 0 0 0      
43 3 -1.2 212.5930449268037 -22.118653183762888 1.9725 0 0 0      
44 3 -1.2 215.23943137817477 -23.00078200088656 1.9725 0 0 0      
45 3 -1.2 214.35730256105103 -21.23652436663923 0.0 0 0 0      
46 1 1.2 217.0036890124221 -22.118653183762888 0.0 0 0 0      
47 2 2.4 217.8858178295457 -19.472266732391894 1.9725 0 0 0      
48 3 -1.2 216.1215601952984 -20.35439554951556 1.9725 0 0 0      
49 3 -1.2 218.76794664666937 -21.23652436663923 1.9725 0 0 0      
50 3 -1.2 217.8858178295457 -19.472266732391894 0.0 0 0 0      
51 1 1.2 220.53220428091677 -20.354395549515537 0.0 0 0 0      
52 2 2.4 221.4143330980404 -17.70800909814455 1.9725 0 0 0      
53 3 -1.2 219.6500754637931 -18.59013791526821 1.9725 0 0 0      
54 3 -1.2 222.2964619151641 -19.47226673239188 1.9725 0 0 0      
55 3 -1.2 221.4143330980404 -17.70800909814455 0.0 0 0 0      
56 1 1.2 224.06071954941143 -18.59013791526821 0.0 0 0 0      
57 2 2.4 224.9428483665351 -15.943751463897208 1.9725 0 0 0      
58 3 -1.2 223.1785907322877 -16.82588028102088 1.9725 0 0 0      
59 3 -1.2 225.82497718365877 -17.708009098144537 1.9725 0 0 0      
60 3 -1.2 224.9428483665351 -15.943751463897208 0.0 0 0 0      
61 1 1.2 227.5892348179061 -16.82588028102088 0.0 0 0 0      
62 2 2.4 228.47136363502975 -14.179493829649878 1.9725 0 0 0      
63 3 -1.2 226.7071060007824 -15.06162264677355 1.9725 0 0 0      
64 3 -1.2 229.35349245215343 -15.943751463897208 1.9725 0 0 0      
65 3 -1.2 228.47136363502975 -14.179493829649878 0.0 0 0 0      
66 1 1.2 231.11775008640075 -15.06162264677355 0.0 0 0 0      
67 2 2.4 231.9998789035244 -12.41523619540255 1.9725 0 0 0      
68 3 -1.2 230.2356212692771 -13.297365012526214 1.9725 0 0 0      
69 3 -1.2 232.8820077206481 -14.179493829649878 1.9725 0 0 0      
70 3 -1.2 231.9998789035244 -12.41523619540255 0.0 0 0 0      
71 1 1.2 234.64626535489535 -13.297365012526214 0.0 0 0 0      
72 2 2.4 235.5283941720191 -10.650978561155206 1.9725 0 0 0      
73 3 -1.2 233.7641365377717 -11.533107378278892 1.9725 0 0 0      
74 3 -1.2 236.41052298914275 -12.415236195402535 1.9725 0 0 0      
75 3 -1.2 235.5283941720191 -10.650978561155206 0.0 0 0 0      
76 3 -1.2 237.2926518062664 -9.768849744031549 1.9725 0 0 0      
77 2 2.4 202.0074991213197 -23.00078200088656 1.9725 0 0 0      
78 3 -1.2 202.0074991213197 -23.00078200088656 0.0 0 0 0      
79 2 2.4 205.5360143898144 -21.23652436663921 1.9725 0 0 0      
80 3 -1.2 203.77175675556708 -22.118653183762888 1.9725 0 0 0      
81 3 -1.2 206.4181432069381 -23.000782000886538 1.9725 0 0 0      
82 3 -1.2 205.5360143898144 -21.23652436663921 0.0 0 0 0      
83 1 1.2 208.18240084118543 -22.118653183762866 0.0 0 0 0      
84 2 2.4 209.06452965830908 -19.47226673239188 1.9725 0 0 0      
85 3 -1.2 207.30027202406177 -20.354395549515537 1.9725 0 0 0      
86 3 -1.2 209.94665847543277 -21.23652436663921 1.9725 0 0 0      
87 3 -1.2 209.06452965830908 -19.47226673239188 0.0 0 0 0      
88 1 1.2 211.71091610968008 -20.354395549515537 0.0 0 0 0      
89 2 2.4 212.5930449268037 -17.70800909814455 1.9725 0 0 0      
90 3 -1.2 210.8287872925564 -18.59013791526821 1.9725 0 0 0      
91 3 -1.2 213.47517374392737 -19.47226673239188 1.9725 0 0 0      
92 3 -1.2 212.5930449268037 -17.70800909814455 0.0 0 0 0      
93 1 1.2 215.23943137817477 -18.59013791526821 0.0 0 0 0      
94 2 2.4 216.1215601952984 -15.943751463897229 1.9725 0 0 0      
95 3 -1.2 214.35730256105109 -16.82588028102088 1.9725 0 0 0      
96 3 -1.2 217.0036890124221 -17.70800909814455 1.9725 0 0 0      
97 3 -1.2 216.1215601952984 -15.943751463897229 0.0 0 0 0      
98 1 1.2 218.76794664666943 -16.825880281020865 0.0 0 0 0      
99 2 2.4 219.6500754637931 -14.179493829649878 1.9725 0 0 0      
100 3 -1.2 217.88581782954577 -15.061622646773536 1.9725 0 0 0      
101 3 -1.2 220.53220428091677 -15.943751463897208 1.9725 0 0 0      
102 3 -1.2 219.6500754637931 -14.179493829649878 0.0 0 0 0      
103 1 1.2 222.2964619151641 -15.061622646773536 0.0 0 0 0      
104 2 2.4 223.17859073228777 -12.415236195402535 1.9725 0 0 0      
105 3 -1.2 221.4143330980404 -13.297365012526207 1.9725 0 0 0      
106 3 -1.2 224.06071954941143 -14.179493829649864 1.9725 0 0 0      
107 3 -1.2 223.17859073228777 -12.415236195402535 0.0 0 0 0      
108 1 1.2 225.82497718365877 -13.297365012526207 0.0 0 0 0      
109 2 2.4 226.7071060007824 -10.650978561155206 1.9725 0 0 0      
110 3 -1.2 224.9428483665351 -11.533107378278878 1.9725 0 0 0      
111 3 -1.2 227.5892348179061 -12.415236195402535 1.9725 0 0 0      
112 3 -1.2 226.7071060007824 -10.650978561155206 0.0 0 0 0      
113 1 1.2 229.35349245215343 -11.533107378278878 0.0 0 0 0      
114 2 2.4 230.2356212692771 -8.886720926907877 1.9725 0 0 0      
115 3 -1.2 228.4713636350297 -9.768849744031549 1.9725 0 0 0      
116 3 -1.2 231.11775008640075 -10.650978561155206 1.9725 0 0 0      
117 3 -1.2 230.2356212692771 -8.886720926907877 0.0 0 0 0      
118 1 1.2 232.8820077206481 -9.768849744031549 0.0 0 0 0      
119 2 2.4 233.76413653777175 -7.122463292660534 1.9725 0 0 0      
120 3 -1.2 231.9998789035244 -8.00459210978422 1.9725 0 0 0      
121 3 -1.2 234.64626535489543 -8.886720926907863 1.9725 0 0 0      
122 3 -1.2 233.76413653777175 -7.122463292660534 0.0 0 0 0      
123 1 1.2 236.41052298914275 -8.004592109784205 0.0 0 0 0      
124 2 2.4 237.2926518062664 -5.358205658413205 1.9725 0 0 0      
125 3 -1.2 235.5283941720191 -6.240334475536876 1.9725 0 0 0      
126 3 -1.2 237.2926518062664 -5.358205658413205 0.0 0 0 0      
127 2 2.4 193.18621095008308 -23.00078200088656 1.9725 0 0 0      
128 3 -1.2 193.18621095008308 -23.00078200088656 0.0 0 0 0      
129 2 2.4 196.71472621857777 -21.23652436663923 1.9725 0 0 0      
130 3 -1.2 194.9504685843304 -22.118653183762895 1.9725 0 0 0      
131 3 -1.2 197.59685503570145 -23.00078200088656 1.9725 0 0 0      
132 3 -1.2 196.71472621857777 -21.23652436663923 0.0 0 0 0      
133 1 1.2 199.36111266994877 -22.118653183762895 0.0 0 0 0      
134 2 2.4 200.2432414870724 -19.472266732391894 1.9725 0 0 0      
135 3 -1.2 198.47898385282508 -20.354395549515566 1.9725 0 0 0      
136 3 -1.2 201.12537030419605 -21.23652436663923 1.9725 0 0 0      
137 3 -1.2 200.2432414870724 -19.472266732391894 0.0 0 0 0      
138 1 1.2 202.88962793844337 -20.35439554951556 0.0 0 0 0      
139 2 2.4 203.77175675556708 -17.70800909814455 1.9725 0 0 0      
140 3 -1.2 202.0074991213197 -18.590137915268222 1.9725 0 0 0      
141 3 -1.2 204.65388557269077 -19.47226673239188 1.9725 0 0 0      
142 3 -1.2 203.77175675556708 -17.70800909814455 0.0 0 0 0      
143 1 1.2 206.4181432069381 -18.59013791526821 0.0 0 0 0      
144 2 2.4 207.30027202406177 -15.943751463897229 1.9725 0 0 0      
145 3 -1.2 205.53601438981443 -16.82588028102088 1.9725 0 0 0      
146 3 -1.2 208.18240084118543 -17.70800909814455 1.9725 0 0 0      
147 3 -1.2 207.30027202406177 -15.943751463897229 0.0 0 0 0      
148 1 1.2 209.94665847543277 -16.82588028102088 0.0 0 0 0      
149 2 2.4 210.8287872925564 -14.179493829649893 1.9725 0 0 0      
150 3 -1.2 209.06452965830908 -15.06162264677355 1.9725 0 0 0      
151 3 -1.2 211.71091610968008 -15.943751463897229 1.9725 0 0 0      
152 3 -1.2 210.8287872925564 -14.179493829649893 0.0 0 0 0      
153 1 1.2 213.47517374392737 -15.06162264677355 0.0 0 0 0      
154 2 2.4 214.35730256105103 -12.415236195402564 1.9725 0 0 0      
155 3 -1.2 212.5930449268037 -13.297365012526214 1.9725 0 0 0      
156 3 -1.2 215.2394313781747 -14.179493829649893 1.9725 0 0 0      
157 3 -1.2 214.35730256105103 -12.415236195402564 0.0 0 0 0      
158 1 1.2 217.0036890124221 -13.297365012526207 0.0 0 0 0      
159 2 2.4 217.88581782954577 -10.65097856115522 1.9725 0 0 0      
160 3 -1.2 216.12156019529849 -11.533107378278878 1.9725 0 0 0      
161 3 -1.2 218.76794664666943 -12.41523619540255 1.9725 0 0 0      
162 3 -1.2 217.88581782954577 -10.65097856115522 0.0 0 0 0      
163 1 1.2 220.53220428091677 -11.533107378278878 0.0 0 0 0      
164 2 2.4 221.4143330980404 -8.886720926907877 1.9725 0 0 0      
165 3 -1.2 219.6500754637931 -9.768849744031549 1.9725 0 0 0      
166 3 -1.2 222.2964619151641 -10.650978561155206 1.9725 0 0 0      
167 3 -1.2 221.4143330980404 -8.886720926907877 0.0 0 0 0      
168 1 1.2 224.06071954941137 -9.768849744031549 0.0 0 0 0      
169 2 2.4 224.9428483665351 -7.122463292660548 1.9725 0 0 0      
170 3 -1.2 223.1785907322877 -8.00459210978422 1.9725 0 0 0      
171 3 -1.2 225.82497718365877 -8.886720926907877 1.9725 0 0 0      
172 3 -1.2 224.9428483665351 -7.122463292660548 0.0 0 0 0      
173 1 1.2 227.5892348179061 -8.00459210978422 0.0 0 0 0      
174 2 2.4 228.47136363502975 -5.358205658413226 1.9725 0 0 0      
175 3 -1.2 226.7071060007824 -6.240334475536891 1.9725 0 0 0      
176 3 -1.2 229.35349245215343 -7.122463292660548 1.9725 0 0 0      
177 3 -1.2 228.47136363502975 -5.358205658413226 0.0 0 0 0      
178 1 1.2 231.11775008640075 -6.240334475536891 0.0 0 0 0      
179 2 2.4 231.9998789035244 -3.5939480241658757 1.9725 0 0 0      
180 3 -1.2 230.2356212692771 -4.4760768412895615 1.9725 0 0 0      
181 3 -1.2 232.8820077206481 -5.358205658413205 1.9725 0 0 0      
182 3 -1.2 231.9998789035244 -3.5939480241658757 0.0 0 0 0      
183 1 1.2 234.64626535489535 -4.476076841289547 0.0 0 0 0      
184 2 2.4 235.5283941720191 -1.8296903899185466 1.9725 0 0 0      
185 3 -1.2 233.7641365377717 -2.7118192070422182 1.9725 0 0 0      
186 3 -1.2 236.41052298914275 -3.5939480241658757 1.9725 0 0 0      
187 3 -1.2 235.5283941720191 -1.8296903899185466 0.0 0 0 0      
188 3 -1.2 237.2926518062665 -0.9475615727948821 1.9725 0 0 0      
189 2 2.4 184.3649227788464 -23.00078200088656 1.9725 0 0 0      
190 3 -1.2 184.3649227788464 -23.00078200088656 0.0 0 0 0      
191 2 2.4 187.89343804734108 -21.23652436663921 1.9725 0 0 0      
192 3 -1.2 186.12918041309376 -22.118653183762888 1.9725 0 0 0      
193 3 -1.2 188.77556686446476 -23.000782000886538 1.9725 0 0 0      
194 3 -1.2 187.89343804734108 -21.23652436663921 0.0 0 0 0      
195 1 1.2 190.53982449871205 -22.118653183762888 0.0 0 0 0      
196 2 2.4 191.4219533158357 -19.47226673239188 1.9725 0 0 0      
197 3 -1.2 189.6576956815884 -20.35439554951556 1.9725 0 0 0      
198 3 -1.2 192.30408213295945 -21.23652436663921 1.9725 0 0 0      
199 3 -1.2 191.4219533158357 -19.47226673239188 0.0 0 0 0      
200 1 1.2 194.06833976720677 -20.35439554951556 0.0 0 0 0      
201 2 2.4 194.9504685843304 -17.70800909814455 1.9725 0 0 0      
202 3 -1.2 193.18621095008305 -18.590137915268222 1.9725 0 0 0      
203 3 -1.2 195.83259740145405 -19.47226673239188 1.9725 0 0 0      
204 3 -1.2 194.9504685843304 -17.70800909814455 0.0 0 0 0      
205 1 1.2 197.59685503570137 -18.590137915268222 0.0 0 0 0      
206 2 2.4 198.47898385282508 -15.943751463897229 1.9725 0 0 0      
207 3 -1.2 196.7147262185777 -16.825880281020893 1.9725 0 0 0      
208 3 -1.2 199.36111266994877 -17.70800909814455 1.9725 0 0 0      
209 3 -1.2 198.47898385282508 -15.943751463897229 0.0 0 0 0      
210 1 1.2 201.12537030419605 -16.82588028102088 0.0 0 0 0      
211 2 2.4 202.0074991213197 -14.179493829649878 1.9725 0 0 0      
212 3 -1.2 200.2432414870724 -15.06162264677355 1.9725 0 0 0      
213 3 -1.2 202.88962793844345 -15.943751463897208 1.9725 0 0 0      
214 3 -1.2 202.0074991213197 -14.179493829649878 0.0 0 0 0      
215 1 1.2 204.65388557269077 -15.061622646773536 0.0 0 0 0      
216 2 2.4 205.5360143898144 -12.41523619540255 1.9725 0 0 0      
217 3 -1.2 203.77175675556708 -13.297365012526207 1.9725 0 0 0      
218 3 -1.2 206.41814320693803 -14.179493829649878 1.9725 0 0 0      
219 3 -1.2 205.5360143898144 -12.41523619540255 0.0 0 0 0      
220 1 1.2 208.18240084118543 -13.297365012526207 0.0 0 0 0      
221 2 2.4 209.06452965830908 -10.65097856115522 1.9725 0 0 0      
222 3 -1.2 207.30027202406177 -11.533107378278878 1.9725 0 0 0      
223 3 -1.2 209.94665847543277 -12.41523619540255 1.9725 0 0 0      
224 3 -1.2 209.06452965830908 -10.65097856115522 0.0 0 0 0      
225 1 1.2 211.71091610968008 -11.533107378278878 0.0 0 0 0      
226 2 2.4 212.5930449268037 -8.886720926907891 1.9725 0 0 0      
227 3 -1.2 210.8287872925564 -9.768849744031549 1.9725 0 0 0      
228 3 -1.2 213.47517374392737 -10.65097856115522 1.9725 0 0 0      
229 3 -1.2 212.5930449268037 -8.886720926907891 0.0 0 0 0      
230 1 1.2 215.23943137817477 -9.768849744031534 0.0 0 0 0      
231 2 2.4 216.1215601952984 -7.122463292660548 1.9725 0 0 0      
232 3 -1.2 214.35730256105109 -8.004592109784205 1.9725 0 0 0      
233 3 -1.2 217.0036890124221 -8.886720926907877 1.9725 0 0 0      
234 3 -1.2 216.1215601952984 -7.122463292660548 0.0 0 0 0      
235 1 1.2 218.76794664666943 -8.004592109784205 0.0 0 0 0      
236 2 2.4 219.6500754637931 -5.358205658413205 1.9725 0 0 0      
237 3 -1.2 217.88581782954577 -6.240334475536876 1.9725 0 0 0      
238 3 -1.2 220.53220428091677 -7.122463292660534 1.9725 0 0 0      
239 3 -1.2 219.6500754637931 -5.358205658413205 0.0 0 0 0      
240 1 1.2 222.2964619151641 -6.240334475536876 0.0 0 0 0      
241 2 2.4 223.1785907322877 -3.5939480241658757 1.9725 0 0 0      
242 3 -1.2 221.4143330980404 -4.476076841289547 1.9725 0 0 0      
243 3 -1.2 224.06071954941143 -5.358205658413205 1.9725 0 0 0      
244 3 -1.2 223.1785907322877 -3.5939480241658757 0.0 0 0 0      
245 1 1.2 225.82497718365877 -4.476076841289547 0.0 0 0 0      
246 2 2.4 226.7071060007824 -1.8296903899185466 1.9725 0 0 0      
247 3 -1.2 224.94284836653503 -2.7118192070422182 1.9725 0 0 0      
248 3 -1.2 227.5892348179061 -3.5939480241658757 1.9725 0 0 0      
249 3 -1.2 226.7071060007824 -1.8296903899185466 0.0 0 0 0      
250 1 1.2 229.35349245215335 -2.7118192070422182 0.0 0 0 0      
251 2 2.4 230.2356212692771 -0.06543275567120332 1.9725 0 0 0      
252 3 -1.2 228.4713636350297 -0.9475615727948821 1.9725 0 0 0      
253 3 -1.2 231.11775008640075 -1.8296903899185253 1.9725 0 0 0      
254 3 -1.2 230.2356212692771 -0.06543275567120332 0.0 0 0 0      
255 1 1.2 232.8820077206481 -0.9475615727948821 0.0 0 0 0      
256 2 2.4 233.7641365377717 1.6988248785761186 1.9725 0 0 0      
257 3 -1.2 231.9998789035244 0.8166960614524541 1.9725 0 0 0      
258 3 -1.2 234.64626535489543 -0.06543275567120332 1.9725 0 0 0      
259 3 -1.2 233.7641365377717 1.6988248785761186 0.0 0 0 0      
260 1 1.2 236.41052298914275 0.8166960614524754 0.0 0 0 0      
261 2 2.4 237.2926518062664 3.463082512823455 1.9725 0 0 0      
262 3 -1.2 235.5283941720191 2.5809536956997903 1.9725 0 0 0      
263 3 -1.2 237.2926518062664 3.463082512823455 0.0 0 0 0      
264 2 2.4 175.54363460760976 -23.000782000886545 1.9725 0 0 0      
265 3 -1.2 175.54363460760976 -23.000782000886545 0.0 0 0 0      
266 2 2.4 179.0721498761044 -21.236524366639216 1.9725 0 0 0      
267 3 -1.2 177.30789224185708 -22.118653183762888 1.9725 0 0 0      
268 3 -1.2 179.95427869322805 -23.00078200088656 1.9725 0 0 0      
269 3 -1.2 179.0721498761044 -21.236524366639216 0.0 0 0 0      
270 1 1.2 181.71853632747536 -22.118653183762895 0.0 0 0 0      
271 2 2.4 182.60066514459908 -19.47226673239188 1.9725 0 0 0      
272 3 -1.2 180.8364075103517 -20.35439554951556 1.9725 0 0 0      
273 3 -1.2 183.48279396172276 -21.23652436663923 1.9725 0 0 0      
274 3 -1.2 182.60066514459908 -19.47226673239188 0.0 0 0 0      
275 1 1.2 185.2470515959701 -20.35439554951556 0.0 0 0 0      
276 2 2.4 186.12918041309376 -17.708009098144537 1.9725 0 0 0      
277 3 -1.2 184.3649227788464 -18.59013791526821 1.9725 0 0 0      
278 3 -1.2 187.01130923021745 -19.47226673239188 1.9725 0 0 0      
279 3 -1.2 186.12918041309376 -17.708009098144537 0.0 0 0 0      
280 1 1.2 188.77556686446476 -18.590137915268222 0.0 0 0 0      
281 2 2.4 189.6576956815884 -15.943751463897208 1.9725 0 0 0      
282 3 -1.2 187.89343804734108 -16.82588028102088 1.9725 0 0 0      
283 3 -1.2 190.53982449871205 -17.70800909814455 1.9725 0 0 0      
284 3 -1.2 189.6576956815884 -15.943751463897208 0.0 0 0 0      
285 1 1.2 192.30408213295937 -16.825880281020893 0.0 0 0 0      
286 2 2.4 193.18621095008308 -14.179493829649878 1.9725 0 0 0      
287 3 -1.2 191.4219533158357 -15.06162264677355 1.9725 0 0 0      
288 3 -1.2 194.06833976720677 -15.943751463897229 1.9725 0 0 0      
289 3 -1.2 193.18621095008308 -14.179493829649878 0.0 0 0 0      
290 1 1.2 195.83259740145405 -15.061622646773564 0.0 0 0 0      
291 2 2.4 196.7147262185777 -12.41523619540255 1.9725 0 0 0      
292 3 -1.2 194.9504685843304 -13.297365012526214 1.9725 0 0 0      
293 3 -1.2 197.59685503570145 -14.179493829649893 1.9725 0 0 0      
294 3 -1.2 196.7147262185777 -12.41523619540255 0.0 0 0 0      
295 1 1.2 199.36111266994877 -13.297365012526214 0.0 0 0 0      
296 2 2.4 200.2432414870724 -10.650978561155206 1.9725 0 0 0      
297 3 -1.2 198.47898385282508 -11.533107378278878 1.9725 0 0 0      
298 3 -1.2 201.12537030419605 -12.41523619540255 1.9725 0 0 0      
299 3 -1.2 200.2432414870724 -10.650978561155206 0.0 0 0 0      
300 1 1.2 202.88962793844345 -11.533107378278878 0.0 0 0 0      
301 2 2.4 203.77175675556708 -8.886720926907877 1.9725 0 0 0      
302 3 -1.2 202.00749912131977 -9.768849744031534 1.9725 0 0 0      
303 3 -1.2 204.65388557269077 -10.65097856115522 1.9725 0 0 0      
304 3 -1.2 203.77175675556708 -8.886720926907877 0.0 0 0 0      
305 1 1.2 206.4181432069381 -9.768849744031549 0.0 0 0 0      
306 2 2.4 207.3002720240617 -7.122463292660548 1.9725 0 0 0      
307 3 -1.2 205.5360143898144 -8.004592109784205 1.9725 0 0 0      
308 3 -1.2 208.18240084118543 -8.886720926907891 1.9725 0 0 0      
309 3 -1.2 207.3002720240617 -7.122463292660548 0.0 0 0 0      
310 1 1.2 209.94665847543277 -8.00459210978422 0.0 0 0 0      
311 2 2.4 210.8287872925564 -5.358205658413226 1.9725 0 0 0      
312 3 -1.2 209.06452965830908 -6.240334475536876 1.9725 0 0 0      
313 3 -1.2 211.71091610968008 -7.122463292660562 1.9725 0 0 0      
314 3 -1.2 210.8287872925564 -5.358205658413226 0.0 0 0 0      
315 1 1.2 213.47517374392743 -6.240334475536876 0.0 0 0 0      
316 2 2.4 214.35730256105109 -3.5939480241658757 1.9725 0 0 0      
317 3 -1.2 212.59304492680377 -4.476076841289533 1.9725 0 0 0      
318 3 -1.2 215.23943137817477 -5.358205658413226 1.9725 0 0 0      
319 3 -1.2 214.35730256105109 -3.5939480241658757 0.0 0 0 0      
320 1 1.2 217.0036890124221 -4.476076841289547 0.0 0 0 0      
321 2 2.4 217.88581782954577 -1.8296903899185253 1.9725 0 0 0      
322 3 -1.2 216.1215601952984 -2.711819207042204 1.9725 0 0 0      
323 3 -1.2 218.76794664666943 -3.5939480241658757 1.9725 0 0 0      
324 3 -1.2 217.88581782954577 -1.8296903899185253 0.0 0 0 0      
325 1 1.2 220.53220428091677 -2.7118192070422182 0.0 0 0 0      
326 2 2.4 221.4143330980404 -0.06543275567120332 1.9725 0 0 0      
327 3 -1.2 219.6500754637931 -0.9475615727948821 1.9725 0 0 0      
328 3 -1.2 222.2964619151641 -1.8296903899185466 1.9725 0 0 0      
329 3 -1.2 221.4143330980404 -0.06543275567120332 0.0 0 0 0      
330 1 1.2 224.06071954941137 -0.9475615727948821 0.0 0 0 0      
331 2 2.4 224.9428483665351 1.6988248785761186 1.9725 0 0 0      
332 3 -1.2 223.1785907322877 0.8166960614524541 1.9725 0 0 0      
333 3 -1.2 225.82497718365877 -0.06543275567121754 1.9725 0 0 0      
334 3 -1.2 224.9428483665351 1.6988248785761186 0.0 0 0 0      
335 1 1.2 227.5892348179061 0.8166960614524399 0.0 0 0 0      
336 2 2.4 228.47136363502975 3.463082512823476 1.9725 0 0 0      
337 3 -1.2 226.7071060007824 2.580953695699783 1.9725 0 0 0      
338 3 -1.2 229.35349245215343 1.6988248785761186 1.9725 0 0 0      
339 3 -1.2 228.47136363502975 3.463082512823476 0.0 0 0 0      
340 1 1.2 231.11775008640075 2.580953695699783 0.0 0 0 0      
341 2 2.4 231.9998789035244 5.227340147070798 1.9725 0 0 0      
342 3 -1.2 230.2356212692771 4.345211329947119 1.9725 0 0 0      
343 3 -1.2 232.8820077206481 3.463082512823455 1.9725 0 0 0      
344 3 -1.2 231.9998789035244 5.227340147070798 0.0 0 0 0      
345 1 1.2 234.64626535489543 4.345211329947119 0.0 0 0 0      
346 2 2.4 235.5283941720191 6.991597781318127 1.9725 0 0 0      
347 3 -1.2 233.76413653777175 6.10946896419447 1.9725 0 0 0      
348 3 -1.2 236.41052298914275 5.227340147070784 1.9725 0 0 0      
349 3 -1.2 235.5283941720191 6.991597781318127 0.0 0 0 0      
350 3 -1.2 237.2926518062664 7.873726598441799 1.9725 0 0 0      
351 2 2.4 166.72234643637307 -23.000782000886538 1.9725 0 0 0      
352 3 -1.2 166.72234643637307 -23.000782000886538 0.0 0 0 0      
353 2 2.4 170.2508617048677 -21.23652436663921 1.9725 0 0 0      
354 3 -1.2 168.4866040706204 -22.118653183762873 1.9725 0 0 0      
355 3 -1.2 171.13299052199136 -23.00078200088656 1.9725 0 0 0      
356 3 -1.2 170.2508617048677 -21.23652436663921 0.0 0 0 0      
357 1 1.2 172.89724815623873 -22.118653183762888 0.0 0 0 0      
358 2 2.4 173.7793769733624 -19.47226673239188 1.9725 0 0 0      
359 3 -1.2 172.01511933911502 -20.354395549515544 1.9725 0 0 0      
360 3 -1.2 174.6615057904861 -21.236524366639216 1.9725 0 0 0      
361 3 -1.2 173.7793769733624 -19.47226673239188 0.0 0 0 0      
362 1 1.2 176.42576342473342 -20.35439554951556 0.0 0 0 0      
363 2 2.4 177.30789224185708 -17.708009098144544 1.9725 0 0 0      
364 3 -1.2 175.54363460760976 -18.59013791526821 1.9725 0 0 0      
365 3 -1.2 178.19002105898073 -19.472266732391887 1.9725 0 0 0      
366 3 -1.2 177.30789224185708 -17.708009098144544 0.0 0 0 0      
367 1 1.2 179.95427869322805 -18.590137915268222 0.0 0 0 0      
368 2 2.4 180.8364075103517 -15.943751463897208 1.9725 0 0 0      
369 3 -1.2 179.0721498761044 -16.82588028102088 1.9725 0 0 0      
370 3 -1.2 181.71853632747536 -17.70800909814455 1.9725 0 0 0      
371 3 -1.2 180.8364075103517 -15.943751463897208 0.0 0 0 0      
372 1 1.2 183.48279396172276 -16.82588028102088 0.0 0 0 0      
373 2 2.4 184.36492277884645 -14.179493829649864 1.9725 0 0 0      
374 3 -1.2 182.60066514459908 -15.061622646773536 1.9725 0 0 0      
375 3 -1.2 185.2470515959701 -15.943751463897208 1.9725 0 0 0      
376 3 -1.2 184.36492277884645 -14.179493829649864 0.0 0 0 0      
377 1 1.2 187.01130923021745 -15.06162264677355 0.0 0 0 0      
378 2 2.4 187.89343804734108 -12.415236195402535 1.9725 0 0 0      
379 3 -1.2 186.12918041309376 -13.297365012526207 1.9725 0 0 0      
380 3 -1.2 188.77556686446476 -14.179493829649878 1.9725 0 0 0      
381 3 -1.2 187.89343804734108 -12.415236195402535 0.0 0 0 0      
382 1 1.2 190.53982449871205 -13.297365012526214 0.0 0 0 0      
383 2 2.4 191.4219533158357 -10.650978561155206 1.9725 0 0 0      
384 3 -1.2 189.6576956815884 -11.533107378278878 1.9725 0 0 0      
385 3 -1.2 192.30408213295937 -12.41523619540255 1.9725 0 0 0      
386 3 -1.2 191.4219533158357 -10.650978561155206 0.0 0 0 0      
387 1 1.2 194.06833976720668 -11.533107378278892 0.0 0 0 0      
388 2 2.4 194.9504685843304 -8.886720926907877 1.9725 0 0 0      
389 3 -1.2 193.18621095008305 -9.768849744031549 1.9725 0 0 0      
390 3 -1.2 195.83259740145405 -10.65097856115522 1.9725 0 0 0      
391 3 -1.2 194.9504685843304 -8.886720926907877 0.0 0 0 0      
392 1 1.2 197.59685503570145 -9.768849744031549 0.0 0 0 0      
393 2 2.4 198.47898385282508 -7.122463292660534 1.9725 0 0 0      
394 3 -1.2 196.71472621857777 -8.004592109784205 1.9725 0 0 0      
395 3 -1.2 199.36111266994877 -8.886720926907877 1.9725 0 0 0      
396 3 -1.2 198.47898385282508 -7.122463292660534 0.0 0 0 0      
397 1 1.2 201.12537030419605 -8.004592109784205 0.0 0 0 0      
398 2 2.4 202.0074991213197 -5.358205658413205 1.9725 0 0 0      
399 3 -1.2 200.2432414870724 -6.240334475536862 1.9725 0 0 0      
400 3 -1.2 202.88962793844337 -7.122463292660548 1.9725 0 0 0      
401 3 -1.2 202.0074991213197 -5.358205658413205 0.0 0 0 0      
402 1 1.2 204.65388557269077 -6.240334475536876 0.0 0 0 0      
403 2 2.4 205.5360143898144 -3.5939480241658757 1.9725 0 0 0      
404 3 -1.2 203.77175675556708 -4.476076841289533 1.9725 0 0 0      
405 3 -1.2 206.41814320693803 -5.358205658413226 1.9725 0 0 0      
406 3 -1.2 205.5360143898144 -3.5939480241658757 0.0 0 0 0      
407 1 1.2 208.18240084118543 -4.476076841289547 0.0 0 0 0      
408 2 2.4 209.06452965830908 -1.8296903899185466 1.9725 0 0 0      
409 3 -1.2 207.30027202406177 -2.711819207042204 1.9725 0 0 0      
410 3 -1.2 209.94665847543277 -3.59394802416589 1.9725 0 0 0      
411 3 -1.2 209.06452965830908 -1.8296903899185466 0.0 0 0 0      
412 1 1.2 211.71091610968008 -2.711819207042204 0.0 0 0 0      
413 2 2.4 212.5930449268037 -0.06543275567120332 1.9725 0 0 0      
414 3 -1.2 210.8287872925564 -0.9475615727948608 1.9725 0 0 0      
415 3 -1.2 213.47517374392737 -1.8296903899185466 1.9725 0 0 0      
416 3 -1.2 212.5930449268037 -0.06543275567120332 0.0 0 0 0      
417 1 1.2 215.23943137817477 -0.9475615727948821 0.0 0 0 0      
418 2 2.4 216.12156019529849 1.69882487857614 1.9725 0 0 0      
419 3 -1.2 214.35730256105109 0.8166960614524754 1.9725 0 0 0      
420 3 -1.2 217.0036890124221 -0.06543275567120332 1.9725 0 0 0      
421 3 -1.2 216.12156019529849 1.69882487857614 0.0 0 0 0      
422 1 1.2 218.76794664666943 0.8166960614524541 0.0 0 0 0      
423 2 2.4 219.6500754637931 3.463082512823476 1.9725 0 0 0      
424 3 -1.2 217.88581782954577 2.5809536956997903 1.9725 0 0 0      
425 3 -1.2 220.53220428091677 1.6988248785761186 1.9725 0 0 0      
426 3 -1.2 219.6500754637931 3.463082512823476 0.0 0 0 0      
427 1 1.2 222.2964619151641 2.580953695699783 0.0 0 0 0      
428 2 2.4 223.1785907322877 5.227340147070798 1.9725 0 0 0      
429 3 -1.2 221.4143330980404 4.345211329947119 1.9725 0 0 0      
430 3 -1.2 224.06071954941137 3.463082512823455 1.9725 0 0 0      
431 3 -1.2 223.1785907322877 5.227340147070798 0.0 0 0 0      
432 1 1.2 225.8249771836587 4.345211329947112 0.0 0 0 0      
433 2 2.4 226.7071060007825 6.991597781318141 1.9725 0 0 0      
434 3 -1.2 224.94284836653503 6.1094689641944555 1.9725 0 0 0      
435 3 -1.2 227.5892348179061 5.227340147070798 1.9725 0 0 0      
436 3 -1.2 226.7071060007825 6.991597781318141 0.0 0 0 0      
437 1 1.2 229.35349245215343 6.1094689641944555 0.0 0 0 0      
438 2 2.4 230.2356212692771 8.75585541556547 1.9725 0 0 0      
439 3 -1.2 228.47136363502975 7.873726598441799 1.9725 0 0 0      
440 3 -1.2 231.11775008640075 6.991597781318127 1.9725 0 0 0      
441 3 -1.2 230.2356212692771 8.75585541556547 0.0 0 0 0      
442 1 1.2 232.8820077206481 7.873726598441799 0.0 0 0 0      
443 2 2.4 233.7641365377717 10.5201130498128 1.9725 0 0 0      
444 3 -1.2 231.9998789035244 9.637984232689142 1.9725 0 0 0      
445 3 -1.2 234.64626535489535 8.755855415565456 1.9725 0 0 0      
446 3 -1.2 233.7641365377717 10.5201130498128 0.0 0 0 0      
447 1 1.2 236.41052298914275 9.637984232689128 0.0 0 0 0      