LAMMPS data file via write_data, version 19 Nov 2024, timestep = 0, units = metal

15894 atoms
3 atom types

0 28.5075636080846 xlo xhi
-142.512271840007 142.512271840007 ylo yhi
0 23.67 zlo zhi

Masses

1 87.62
2 47.867
3 15.999

Atoms # charge

1 2 2.39958182118984 20.28896279384434 -70.76660363690698 1.9724999999999966 0 0 0
2 3 -1.20021318401756 20.28896279384434 -70.76660363690698 0 0 0 0
3 2 2.39958182118984 23.817478062339006 -69.00234600265966 1.9724999999999966 0 0 0
4 3 -1.20021318401756 22.053220428091677 -69.88447481978332 1.9724999999999966 0 0 0
5 3 -1.20021318401756 24.69960687946267 -70.76660363690698 1.9724999999999966 0 0 0
6 3 -1.20021318401756 23.817478062339006 -69.00234600265966 0 0 0 0
7 1 1.19943714821764 26.463864513710014 -69.88447481978332 0 0 0 0
8 2 2.39958182118984 27.34599333083368 -67.23808836841232 1.9724999999999966 0 0 0
9 3 -1.20021318401756 25.58173569658635 -68.12021718553598 1.9724999999999966 0 0 0
10 3 -1.20021318401756 28.228122147957343 -69.00234600265964 1.9724999999999966 0 0 0
11 3 -1.20021318401756 27.34599333083368 -67.23808836841232 0 0 0 0
12 2 2.39958182118984 11.467674622607667 -70.76660363690698 1.9724999999999966 0 0 0
13 3 -1.20021318401756 11.467674622607667 -70.76660363690698 0 0 0 0
14 2 2.39958182118984 14.99618989110234 -69.00234600265964 1.9724999999999966 0 0 0
15 3 -1.20021318401756 13.231932256855004 -69.88447481978332 1.9724999999999966 0 0 0
16 3 -1.20021318401756 15.878318708226004 -70.76660363690698 1.9724999999999966 0 0 0
17 3 -1.20021318401756 14.99618989110234 -69.00234600265964 0 0 0 0
18 1 1.19943714821764 17.64257634247334 -69.88447481978332 0 0 0 0
19 2 2.39958182118984 18.524705159597005 -67.23808836841232 1.9724999999999966 0 0 0
20 3 -1.20021318401756 16.760447525349676 -68.12021718553598 1.9724999999999966 0 0 0
21 3 -1.20021318401756 19.40683397672067 -69.00234600265964 1.9724999999999966 0 0 0
22 3 -1.20021318401756 18.524705159597005 -67.23808836841232 0 0 0 0
23 1 1.19943714821764 21.171091610968006 -68.12021718553598 0 0 0 0
24 2 2.39958182118984 22.05322042809167 -65.47383073416498 1.9724999999999966 0 0 0
25 3 -1.20021318401756 20.28896279384434 -66.35595955128863 1.9724999999999966 0 0 0
26 3 -1.20021318401756 22.935349245215335 -67.23808836841232 1.9724999999999966 0 0 0
27 3 -1.20021318401756 22.05322042809167 -65.47383073416498 0 0 0 0
28 1 1.19943714821764 24.699606879462678 -66.35595955128863 0 0 0 0
29 2 2.39958182118984 25.581735696586342 -63.709573099917634 1.9724999999999966 0 0 0
30 3 -1.20021318401756 23.817478062339013 -64.59170191704132 1.9724999999999966 0 0 0
31 3 -1.20021318401756 26.463864513710007 -65.47383073416498 1.9724999999999966 0 0 0
32 3 -1.20021318401756 25.581735696586342 -63.709573099917634 0 0 0 0
33 1 1.19943714821764 28.228122147957343 -64.59170191704132 0 0 0 0
34 3 -1.20021318401756 27.34599333083368 -62.82744428279398 1.9724999999999966 0 0 0
35 2 2.39958182118984 2.6463864513710007 -70.76660363690698 1.9724999999999966 0 0 0
36 3 -1.20021318401756 2.6463864513710007 -70.76660363690698 0 0 0 0
37 2 2.39958182118984 6.174901719865673 -69.00234600265966 1.9724999999999966 0 0 0
38 3 -1.20021318401756 4.410644085618344 -69.88447481978332 1.9724999999999966 0 0 0
39 3 -1.20021318401756 7.057030536989345 -70.76660363690698 1.9724999999999966 0 0 0
40 3 -1.20021318401756 6.174901719865673 -69.00234600265966 0 0 0 0
41 1 1.19943714821764 8.821288171236674 -69.88447481978332 0 0 0 0
42 2 2.39958182118984 9.703416988360345 -67.23808836841232 1.9724999999999966 0 0 0
43 3 -1.20021318401756 7.939159354113002 -68.12021718553598 1.9724999999999966 0 0 0
44 3 -1.20021318401756 10.585545805484003 -69.00234600265966 1.9724999999999966 0 0 0
45 3 -1.20021318401756 9.703416988360345 -67.23808836841232 0 0 0 0
46 1 1.19943714821764 12.349803439731339 -68.12021718553598 0 0 0 0
47 2 2.39958182118984 13.23193225685501 -65.47383073416498 1.9724999999999966 0 0 0
48 3 -1.20021318401756 11.467674622607674 -66.35595955128866 1.9724999999999966 0 0 0
49 3 -1.20021318401756 14.114061073978675 -67.23808836841232 1.9724999999999966 0 0 0
50 3 -1.20021318401756 13.23193225685501 -65.47383073416498 0 0 0 0
51 1 1.19943714821764 15.878318708226011 -66.35595955128863 0 0 0 0
52 2 2.39958182118984 16.760447525349676 -63.70957309991766 1.9724999999999966 0 0 0
53 3 -1.20021318401756 14.996189891102347 -64.59170191704132 1.9724999999999966 0 0 0
54 3 -1.20021318401756 17.64257634247334 -65.47383073416498 1.9724999999999966 0 0 0
55 3 -1.20021318401756 16.760447525349676 -63.70957309991766 0 0 0 0
56 1 1.19943714821764 19.406833976720677 -64.59170191704132 0 0 0 0
57 2 2.39958182118984 20.28896279384434 -61.94531546567032 1.9724999999999966 0 0 0
58 3 -1.20021318401756 18.524705159597012 -62.82744428279398 1.9724999999999966 0 0 0
59 3 -1.20021318401756 21.171091610968006 -63.70957309991766 1.9724999999999966 0 0 0
60 3 -1.20021318401756 20.28896279384434 -61.94531546567032 0 0 0 0
61 1 1.19943714821764 22.93534924521535 -62.82744428279398 0 0 0 0
62 2 2.39958182118984 23.817478062339013 -60.181057831422976 1.9724999999999966 0 0 0
63 3 -1.20021318401756 22.053220428091684 -61.06318664854666 1.9724999999999966 0 0 0
64 3 -1.20021318401756 24.699606879462678 -61.94531546567032 1.9724999999999966 0 0 0
65 3 -1.20021318401756 23.817478062339013 -60.181057831422976 0 0 0 0
66 1 1.19943714821764 26.463864513710014 -61.06318664854663 0 0 0 0
67 2 2.39958182118984 27.34599333083368 -58.41680019717566 1.9724999999999966 0 0 0
68 3 -1.20021318401756 25.58173569658635 -59.29892901429932 1.9724999999999966 0 0 0
69 3 -1.20021318401756 28.22812214795735 -60.181057831422976 1.9724999999999966 0 0 0
70 3 -1.20021318401756 27.34599333083368 -58.41680019717566 0 0 0 0
71 1 1.19943714821764 0 -69.88447481978332 0 0 0 0
72 2 2.39958182118984 0.8821288171236574 -67.23808836841232 1.9724999999999966 0 0 0
73 3 -1.20021318401756 1.764257634247329 -69.00234600265966 1.9724999999999966 0 0 0
74 3 -1.20021318401756 0.8821288171236574 -67.23808836841232 0 0 0 0
75 1 1.19943714821764 3.528515268494658 -68.12021718553598 0 0 0 0
76 2 2.39958182118984 4.410644085618344 -65.47383073416498 1.9724999999999966 0 0 0
77 3 -1.20021318401756 2.6463864513710007 -66.35595955128866 1.9724999999999966 0 0 0
78 3 -1.20021318401756 5.292772902742001 -67.23808836841232 1.9724999999999966 0 0 0
79 3 -1.20021318401756 4.410644085618344 -65.47383073416498 0 0 0 0
80 1 1.19943714821764 7.057030536989345 -66.35595955128863 0 0 0 0
81 2 2.39958182118984 7.939159354113002 -63.70957309991766 1.9724999999999966 0 0 0
82 3 -1.20021318401756 6.174901719865673 -64.59170191704132 1.9724999999999966 0 0 0
83 3 -1.20021318401756 8.82128817123666 -65.47383073416498 1.9724999999999966 0 0 0
84 3 -1.20021318401756 7.939159354113002 -63.70957309991766 0 0 0 0
85 1 1.19943714821764 10.585545805484003 -64.59170191704132 0 0 0 0
86 2 2.39958182118984 11.467674622607674 -61.94531546567032 1.9724999999999966 0 0 0
87 3 -1.20021318401756 9.703416988360345 -62.82744428279398 1.9724999999999966 0 0 0
88 3 -1.20021318401756 12.349803439731339 -63.709573099917634 1.9724999999999966 0 0 0
89 3 -1.20021318401756 11.467674622607674 -61.94531546567032 0 0 0 0
90 1 1.19943714821764 14.114061073978675 -62.82744428279398 0 0 0 0
91 2 2.39958182118984 14.99618989110234 -60.181057831422976 1.9724999999999966 0 0 0
92 3 -1.20021318401756 13.23193225685501 -61.06318664854663 1.9724999999999966 0 0 0
93 3 -1.20021318401756 15.878318708226004 -61.94531546567032 1.9724999999999966 0 0 0
94 3 -1.20021318401756 14.99618989110234 -60.181057831422976 0 0 0 0
95 1 1.19943714821764 17.64257634247334 -61.06318664854663 0 0 0 0
96 2 2.39958182118984 18.524705159597005 -58.41680019717566 1.9724999999999966 0 0 0
97 3 -1.20021318401756 16.760447525349676 -59.29892901429932 1.9724999999999966 0 0 0
98 3 -1.20021318401756 19.40683397672067 -60.181057831422976 1.9724999999999966 0 0 0
99 3 -1.20021318401756 18.524705159597005 -58.41680019717566 0 0 0 0
100 1 1.19943714821764 21.171091610968013 -59.29892901429932 0 0 0 0
101 2 2.39958182118984 22.053220428091677 -56.65254256292832 1.9724999999999966 0 0 0
102 3 -1.20021318401756 20.288962793844348 -57.534671380051975 1.9724999999999966 0 0 0
103 3 -1.20021318401756 22.935349245215342 -58.41680019717563 1.9724999999999966 0 0 0
104 3 -1.20021318401756 22.053220428091677 -56.65254256292832 0 0 0 0
105 1 1.19943714821764 24.699606879462678 -57.534671380051975 0 0 0 0
106 2 2.39958182118984 25.58173569658635 -54.888284928680974 1.9724999999999966 0 0 0
107 3 -1.20021318401756 23.817478062339013 -55.770413745804646 1.9724999999999966 0 0 0
108 3 -1.20021318401756 26.463864513710007 -56.6525425629283 1.9724999999999966 0 0 0
109 3 -1.20021318401756 25.58173569658635 -54.888284928680974 0 0 0 0
110 1 1.19943714821764 28.228122147957343 -55.770413745804646 0 0 0 0
111 3 -1.20021318401756 27.34599333083368 -54.00615611155732 1.9724999999999966 0 0 0
112 3 -1.20021318401756 0 -65.47383073416498 1.9724999999999966 0 0 0
113 1 1.19943714821764 1.7642576342473433 -64.59170191704132 0 0 0 0
114 2 2.39958182118984 2.6463864513710007 -61.94531546567032 1.9724999999999966 0 0 0
115 3 -1.20021318401756 0.8821288171236574 -62.82744428279398 1.9724999999999966 0 0 0
116 3 -1.20021318401756 3.5285152684946723 -63.70957309991766 1.9724999999999966 0 0 0
117 3 -1.20021318401756 2.6463864513710007 -61.94531546567032 0 0 0 0
118 1 1.19943714821764 5.292772902742001 -62.82744428279398 0 0 0 0
119 2 2.39958182118984 6.174901719865659 -60.181057831422976 1.9724999999999966 0 0 0
120 3 -1.20021318401756 4.410644085618344 -61.06318664854663 1.9724999999999966 0 0 0
121 3 -1.20021318401756 7.057030536989345 -61.94531546567032 1.9724999999999966 0 0 0
122 3 -1.20021318401756 6.174901719865659 -60.181057831422976 0 0 0 0
123 1 1.19943714821764 8.821288171236674 -61.06318664854666 0 0 0 0
124 2 2.39958182118984 9.703416988360345 -58.41680019717563 1.9724999999999966 0 0 0
125 3 -1.20021318401756 7.939159354113002 -59.29892901429932 1.9724999999999966 0 0 0
126 3 -1.20021318401756 10.585545805484003 -60.181057831422976 1.9724999999999966 0 0 0
127 3 -1.20021318401756 9.703416988360345 -58.41680019717563 0 0 0 0
128 1 1.19943714821764 12.349803439731346 -59.29892901429932 0 0 0 0
129 2 2.39958182118984 13.231932256855004 -56.65254256292832 1.9724999999999966 0 0 0
130 3 -1.20021318401756 11.467674622607674 -57.534671380051975 1.9724999999999966 0 0 0
131 3 -1.20021318401756 14.114061073978675 -58.41680019717566 1.9724999999999966 0 0 0
132 3 -1.20021318401756 13.231932256855004 -56.65254256292832 0 0 0 0
133 1 1.19943714821764 15.878318708226011 -57.534671380051975 0 0 0 0
134 2 2.39958182118984 16.76044752534967 -54.888284928680974 1.9724999999999966 0 0 0
135 3 -1.20021318401756 14.99618989110234 -55.770413745804646 1.9724999999999966 0 0 0
136 3 -1.20021318401756 17.64257634247334 -56.65254256292832 1.9724999999999966 0 0 0
137 3 -1.20021318401756 16.76044752534967 -54.888284928680974 0 0 0 0
138 1 1.19943714821764 19.406833976720684 -55.770413745804646 0 0 0 0
139 2 2.39958182118984 20.28896279384434 -53.124027294433645 1.9724999999999966 0 0 0
140 3 -1.20021318401756 18.524705159597012 -54.0061561115573 1.9724999999999966 0 0 0
141 3 -1.20021318401756 21.171091610968013 -54.88828492868099 1.9724999999999966 0 0 0
142 3 -1.20021318401756 20.28896279384434 -53.124027294433645 0 0 0 0
143 1 1.19943714821764 22.93534924521535 -54.00615611155732 0 0 0 0
144 2 2.39958182118984 23.817478062339006 -51.3597696601863 1.9724999999999966 0 0 0
145 3 -1.20021318401756 22.053220428091677 -52.241898477309974 1.9724999999999966 0 0 0
146 3 -1.20021318401756 24.699606879462678 -53.124027294433645 1.9724999999999966 0 0 0
147 3 -1.20021318401756 23.817478062339006 -51.3597696601863 0 0 0 0
148 1 1.19943714821764 26.463864513710014 -52.24189847730999 0 0 0 0
149 2 2.39958182118984 27.34599333083368 -49.59551202593897 1.9724999999999966 0 0 0
150 3 -1.20021318401756 25.581735696586342 -50.477640843062645 1.9724999999999966 0 0 0
151 3 -1.20021318401756 28.22812214795735 -51.359769660186316 1.9724999999999966 0 0 0
152 3 -1.20021318401756 27.34599333083368 -49.59551202593897 0 0 0 0
153 1 1.19943714821764 0 -61.06318664854666 0 0 0 0
154 2 2.39958182118984 0.8821288171236574 -58.41680019717563 1.9724999999999966 0 0 0
155 3 -1.20021318401756 1.7642576342473433 -60.181057831422976 1.9724999999999966 0 0 0
156 3 -1.20021318401756 0.8821288171236574 -58.41680019717563 0 0 0 0
157 1 1.19943714821764 3.5285152684946723 -59.29892901429932 0 0 0 0
158 2 2.39958182118984 4.41064408561833 -56.6525425629283 1.9724999999999966 0 0 0
159 3 -1.20021318401756 2.6463864513710007 -57.534671380051975 1.9724999999999966 0 0 0
160 3 -1.20021318401756 5.292772902742001 -58.41680019717566 1.9724999999999966 0 0 0
161 3 -1.20021318401756 4.41064408561833 -56.6525425629283 0 0 0 0
162 1 1.19943714821764 7.057030536989345 -57.534671380051975 0 0 0 0
163 2 2.39958182118984 7.939159354113002 -54.888284928680974 1.9724999999999966 0 0 0
164 3 -1.20021318401756 6.174901719865659 -55.77041374580463 1.9724999999999966 0 0 0
165 3 -1.20021318401756 8.821288171236674 -56.65254256292832 1.9724999999999966 0 0 0
166 3 -1.20021318401756 7.939159354113002 -54.888284928680974 0 0 0 0
167 1 1.19943714821764 10.585545805484003 -55.770413745804646 0 0 0 0
168 2 2.39958182118984 11.467674622607667 -53.12402729443363 1.9724999999999966 0 0 0
169 3 -1.20021318401756 9.703416988360345 -54.0061561115573 1.9724999999999966 0 0 0
170 3 -1.20021318401756 12.349803439731339 -54.888284928680974 1.9724999999999966 0 0 0
171 3 -1.20021318401756 11.467674622607667 -53.12402729443363 0 0 0 0
172 1 1.19943714821764 14.114061073978675 -54.00615611155732 0 0 0 0
173 2 2.39958182118984 14.996189891102333 -51.3597696601863 1.9724999999999966 0 0 0
174 3 -1.20021318401756 13.231932256855004 -52.241898477309974 1.9724999999999966 0 0 0
175 3 -1.20021318401756 15.878318708226004 -53.124027294433645 1.9724999999999966 0 0 0
176 3 -1.20021318401756 14.996189891102333 -51.3597696601863 0 0 0 0
177 1 1.19943714821764 17.642576342473347 -52.241898477309974 0 0 0 0
178 2 2.39958182118984 18.524705159597005 -49.59551202593897 1.9724999999999966 0 0 0
179 3 -1.20021318401756 16.760447525349676 -50.47764084306263 1.9724999999999966 0 0 0
180 3 -1.20021318401756 19.406833976720677 -51.359769660186316 1.9724999999999966 0 0 0
181 3 -1.20021318401756 18.524705159597005 -49.59551202593897 0 0 0 0
182 1 1.19943714821764 21.171091610968013 -50.477640843062645 0 0 0 0
183 2 2.39958182118984 22.053220428091677 -47.83125439169163 1.9724999999999966 0 0 0
184 3 -1.20021318401756 20.28896279384434 -48.7133832088153 1.9724999999999966 0 0 0
185 3 -1.20021318401756 22.93534924521535 -49.59551202593897 1.9724999999999966 0 0 0
186 3 -1.20021318401756 22.053220428091677 -47.83125439169163 0 0 0 0
187 1 1.19943714821764 24.699606879462678 -48.713383208815316 0 0 0 0
188 2 2.39958182118984 25.581735696586335 -46.0669967574443 1.9724999999999966 0 0 0
189 3 -1.20021318401756 23.817478062339006 -46.94912557456797 1.9724999999999966 0 0 0
190 3 -1.20021318401756 26.463864513710007 -47.831254391691644 1.9724999999999966 0 0 0
191 3 -1.20021318401756 25.581735696586335 -46.0669967574443 0 0 0 0
192 1 1.19943714821764 28.22812214795735 -46.94912557456797 0 0 0 0
193 3 -1.20021318401756 27.34599333083368 -45.18486794032063 1.9724999999999966 0 0 0
194 3 -1.20021318401756 0 -56.65254256292832 1.9724999999999966 0 0 0
195 1 1.19943714821764 1.7642576342473433 -55.770413745804646 0 0 0 0
196 2 2.39958182118984 2.6463864513710007 -53.12402729443363 1.9724999999999966 0 0 0
197 3 -1.20021318401756 0.8821288171236574 -54.0061561115573 1.9724999999999966 0 0 0
198 3 -1.20021318401756 3.528515268494658 -54.888284928680974 1.9724999999999966 0 0 0
199 3 -1.20021318401756 2.6463864513710007 -53.12402729443363 0 0 0 0
200 1 1.19943714821764 5.292772902742001 -54.00615611155732 0 0 0 0
201 2 2.39958182118984 6.174901719865659 -51.3597696601863 1.9724999999999966 0 0 0
202 3 -1.20021318401756 4.41064408561833 -52.241898477309974 1.9724999999999966 0 0 0
203 3 -1.20021318401756 7.057030536989345 -53.124027294433645 1.9724999999999966 0 0 0
204 3 -1.20021318401756 6.174901719865659 -51.3597696601863 0 0 0 0
205 1 1.19943714821764 8.821288171236674 -52.241898477309974 0 0 0 0
206 2 2.39958182118984 9.703416988360331 -49.59551202593897 1.9724999999999966 0 0 0
207 3 -1.20021318401756 7.939159354113002 -50.47764084306263 1.9724999999999966 0 0 0
208 3 -1.20021318401756 10.585545805484003 -51.359769660186316 1.9724999999999966 0 0 0
209 3 -1.20021318401756 9.703416988360331 -49.59551202593897 0 0 0 0
210 1 1.19943714821764 12.349803439731339 -50.477640843062645 0 0 0 0
211 2 2.39958182118984 13.231932256854996 -47.83125439169163 1.9724999999999966 0 0 0
212 3 -1.20021318401756 11.467674622607667 -48.7133832088153 1.9724999999999966 0 0 0
213 3 -1.20021318401756 14.114061073978668 -49.59551202593897 1.9724999999999966 0 0 0
214 3 -1.20021318401756 13.231932256854996 -47.83125439169163 0 0 0 0
215 1 1.19943714821764 15.878318708226011 -48.7133832088153 0 0 0 0
216 2 2.39958182118984 16.76044752534967 -46.0669967574443 1.9724999999999966 0 0 0
217 3 -1.20021318401756 14.99618989110234 -46.94912557456796 1.9724999999999966 0 0 0
218 3 -1.20021318401756 17.64257634247334 -47.831254391691644 1.9724999999999966 0 0 0
219 3 -1.20021318401756 16.76044752534967 -46.0669967574443 0 0 0 0
220 1 1.19943714821764 19.406833976720677 -46.94912557456797 0 0 0 0
221 2 2.39958182118984 20.288962793844334 -44.30273912319696 1.9724999999999966 0 0 0
222 3 -1.20021318401756 18.524705159597005 -45.18486794032063 1.9724999999999966 0 0 0
223 3 -1.20021318401756 21.171091610968006 -46.0669967574443 1.9724999999999966 0 0 0
224 3 -1.20021318401756 20.288962793844334 -44.30273912319696 0 0 0 0
225 1 1.19943714821764 22.935349245215342 -45.18486794032064 0 0 0 0
226 2 2.39958182118984 23.817478062339006 -42.53848148894963 1.9724999999999966 0 0 0
227 3 -1.20021318401756 22.05322042809167 -43.4206103060733 1.9724999999999966 0 0 0
228 3 -1.20021318401756 24.699606879462678 -44.30273912319697 1.9724999999999966 0 0 0
229 3 -1.20021318401756 23.817478062339006 -42.53848148894963 0 0 0 0
230 1 1.19943714821764 26.463864513710007 -43.4206103060733 0 0 0 0
231 2 2.39958182118984 27.34599333083367 -40.7742238547023 1.9724999999999966 0 0 0
232 3 -1.20021318401756 25.581735696586335 -41.65635267182596 1.9724999999999966 0 0 0
233 3 -1.20021318401756 28.228122147957343 -42.53848148894964 1.9724999999999966 0 0 0
234 3 -1.20021318401756 27.34599333083367 -40.7742238547023 0 0 0 0
235 1 1.19943714821764 0 -52.241898477309974 0 0 0 0
236 2 2.39958182118984 0.8821288171236574 -49.59551202593897 1.9724999999999966 0 0 0
237 3 -1.20021318401756 1.764257634247329 -51.3597696601863 1.9724999999999966 0 0 0
238 3 -1.20021318401756 0.8821288171236574 -49.59551202593897 0 0 0 0
239 1 1.19943714821764 3.528515268494658 -50.47764084306263 0 0 0 0
240 2 2.39958182118984 4.410644085618344 -47.831254391691644 1.9724999999999966 0 0 0
241 3 -1.20021318401756 2.6463864513710007 -48.713383208815316 1.9724999999999966 0 0 0
242 3 -1.20021318401756 5.292772902742001 -49.59551202593897 1.9724999999999966 0 0 0
243 3 -1.20021318401756 4.410644085618344 -47.831254391691644 0 0 0 0
244 1 1.19943714821764 7.057030536989345 -48.7133832088153 0 0 0 0
245 2 2.39958182118984 7.939159354113002 -46.066996757444315 1.9724999999999966 0 0 0
246 3 -1.20021318401756 6.174901719865673 -46.94912557456797 1.9724999999999966 0 0 0
247 3 -1.20021318401756 8.82128817123666 -47.83125439169163 1.9724999999999966 0 0 0
248 3 -1.20021318401756 7.939159354113002 -46.066996757444315 0 0 0 0
249 1 1.19943714821764 10.585545805484003 -46.94912557456797 0 0 0 0
250 2 2.39958182118984 11.467674622607667 -44.30273912319697 1.9724999999999966 0 0 0
251 3 -1.20021318401756 9.703416988360345 -45.18486794032064 1.9724999999999966 0 0 0
252 3 -1.20021318401756 12.349803439731332 -46.0669967574443 1.9724999999999966 0 0 0
253 3 -1.20021318401756 11.467674622607667 -44.30273912319697 0 0 0 0
254 1 1.19943714821764 14.114061073978675 -45.18486794032063 0 0 0 0
255 2 2.39958182118984 14.99618989110234 -42.53848148894964 1.9724999999999966 0 0 0
256 3 -1.20021318401756 13.23193225685501 -43.4206103060733 1.9724999999999966 0 0 0
257 3 -1.20021318401756 15.878318708226004 -44.30273912319697 1.9724999999999966 0 0 0
258 3 -1.20021318401756 14.99618989110234 -42.53848148894964 0 0 0 0
259 1 1.19943714821764 17.64257634247334 -43.4206103060733 0 0 0 0
260 2 2.39958182118984 18.524705159597005 -40.7742238547023 1.9724999999999966 0 0 0
261 3 -1.20021318401756 16.760447525349676 -41.65635267182597 1.9724999999999966 0 0 0
262 3 -1.20021318401756 19.406833976720677 -42.53848148894963 1.9724999999999966 0 0 0
263 3 -1.20021318401756 18.524705159597005 -40.7742238547023 0 0 0 0
264 1 1.19943714821764 21.171091610968006 -41.65635267182597 0 0 0 0
265 2 2.39958182118984 22.053220428091677 -39.00996622045497 1.9724999999999966 0 0 0
266 3 -1.20021318401756 20.28896279384434 -39.89209503757864 1.9724999999999966 0 0 0
267 3 -1.20021318401756 22.935349245215335 -40.7742238547023 1.9724999999999966 0 0 0
268 3 -1.20021318401756 22.053220428091677 -39.00996622045497 0 0 0 0
269 1 1.19943714821764 24.699606879462678 -39.89209503757863 0 0 0 0
270 2 2.39958182118984 25.581735696586342 -37.24570858620764 1.9724999999999966 0 0 0
271 3 -1.20021318401756 23.817478062339006 -38.1278374033313 1.9724999999999966 0 0 0
272 3 -1.20021318401756 26.463864513710007 -39.00996622045497 1.9724999999999966 0 0 0
273 3 -1.20021318401756 25.581735696586342 -37.24570858620764 0 0 0 0
274 1 1.19943714821764 28.228122147957343 -38.1278374033313 0 0 0 0
275 3 -1.20021318401756 27.34599333083368 -36.36357976908397 1.9724999999999966 0 0 0
276 3 -1.20021318401756 0 -47.831254391691644 1.9724999999999966 0 0 0
277 1 1.19943714821764 1.7642576342473433 -46.94912557456797 0 0 0 0
278 2 2.39958182118984 2.6463864513710007 -44.30273912319697 1.9724999999999966 0 0 0
279 3 -1.20021318401756 0.8821288171236574 -45.18486794032063 1.9724999999999966 0 0 0
280 3 -1.20021318401756 3.5285152684946723 -46.066996757444315 1.9724999999999966 0 0 0
281 3 -1.20021318401756 2.6463864513710007 -44.30273912319697 0 0 0 0
282 1 1.19943714821764 5.292772902742001 -45.18486794032064 0 0 0 0
283 2 2.39958182118984 6.174901719865659 -42.53848148894963 1.9724999999999966 0 0 0
284 3 -1.20021318401756 4.410644085618344 -43.4206103060733 1.9724999999999966 0 0 0
285 3 -1.20021318401756 7.057030536989345 -44.30273912319697 1.9724999999999966 0 0 0
286 3 -1.20021318401756 6.174901719865659 -42.53848148894963 0 0 0 0
287 1 1.19943714821764 8.821288171236674 -43.420610306073314 0 0 0 0
288 2 2.39958182118984 9.703416988360331 -40.7742238547023 1.9724999999999966 0 0 0
289 3 -1.20021318401756 7.939159354113002 -41.65635267182597 1.9724999999999966 0 0 0
290 3 -1.20021318401756 10.585545805484003 -42.53848148894964 1.9724999999999966 0 0 0
291 3 -1.20021318401756 9.703416988360331 -40.7742238547023 0 0 0 0
292 1 1.19943714821764 12.349803439731346 -41.65635267182597 0 0 0 0
293 2 2.39958182118984 13.231932256855004 -39.00996622045497 1.9724999999999966 0 0 0
294 3 -1.20021318401756 11.467674622607674 -39.89209503757863 1.9724999999999966 0 0 0
295 3 -1.20021318401756 14.114061073978675 -40.77422385470231 1.9724999999999966 0 0 0
296 3 -1.20021318401756 13.231932256855004 -39.00996622045497 0 0 0 0
297 1 1.19943714821764 15.878318708226011 -39.89209503757864 0 0 0 0
298 2 2.39958182118984 16.760447525349676 -37.24570858620763 1.9724999999999966 0 0 0
299 3 -1.20021318401756 14.99618989110234 -38.1278374033313 1.9724999999999966 0 0 0
300 3 -1.20021318401756 17.642576342473347 -39.00996622045497 1.9724999999999966 0 0 0
301 3 -1.20021318401756 16.760447525349676 -37.24570858620763 0 0 0 0
302 1 1.19943714821764 19.406833976720677 -38.12783740333131 0 0 0 0
303 2 2.39958182118984 20.288962793844334 -35.4814509519603 1.9724999999999966 0 0 0
304 3 -1.20021318401756 18.524705159597005 -36.36357976908397 1.9724999999999966 0 0 0
305 3 -1.20021318401756 21.171091610968006 -37.24570858620764 1.9724999999999966 0 0 0
306 3 -1.20021318401756 20.288962793844334 -35.4814509519603 0 0 0 0
307 1 1.19943714821764 22.93534924521535 -36.36357976908397 0 0 0 0
308 2 2.39958182118984 23.817478062339006 -33.71719331771297 1.9724999999999966 0 0 0
309 3 -1.20021318401756 22.053220428091677 -34.599322134836626 1.9724999999999966 0 0 0
310 3 -1.20021318401756 24.699606879462678 -35.48145095196031 1.9724999999999966 0 0 0
311 3 -1.20021318401756 23.817478062339006 -33.71719331771297 0 0 0 0
312 1 1.19943714821764 26.463864513710014 -34.59932213483664 0 0 0 0
313 2 2.39958182118984 27.34599333083368 -31.952935683465626 1.9724999999999966 0 0 0
314 3 -1.20021318401756 25.581735696586342 -32.8350645005893 1.9724999999999966 0 0 0
315 3 -1.20021318401756 28.22812214795735 -33.71719331771297 1.9724999999999966 0 0 0
316 3 -1.20021318401756 27.34599333083368 -31.952935683465626 0 0 0 0
317 1 1.19943714821764 0 -43.420610306073314 0 0 0 0
318 2 2.39958182118984 0.8821288171236716 -40.77422385470231 1.9724999999999966 0 0 0
319 3 -1.20021318401756 1.7642576342473433 -42.53848148894964 1.9724999999999966 0 0 0
320 3 -1.20021318401756 0.8821288171236716 -40.77422385470231 0 0 0 0
321 1 1.19943714821764 3.5285152684946723 -41.65635267182597 0 0 0 0
322 2 2.39958182118984 4.410644085618344 -39.00996622045497 1.9724999999999966 0 0 0
323 3 -1.20021318401756 2.6463864513710007 -39.89209503757864 1.9724999999999966 0 0 0
324 3 -1.20021318401756 5.292772902742001 -40.77422385470231 1.9724999999999966 0 0 0
325 3 -1.20021318401756 4.410644085618344 -39.00996622045497 0 0 0 0
326 1 1.19943714821764 7.057030536989345 -39.89209503757864 0 0 0 0
327 2 2.39958182118984 7.939159354113002 -37.24570858620764 1.9724999999999966 0 0 0
328 3 -1.20021318401756 6.174901719865673 -38.12783740333131 1.9724999999999966 0 0 0
329 3 -1.20021318401756 8.82128817123666 -39.00996622045497 1.9724999999999966 0 0 0
330 3 -1.20021318401756 7.939159354113002 -37.24570858620764 0 0 0 0
331 1 1.19943714821764 10.585545805484003 -38.1278374033313 0 0 0 0
332 2 2.39958182118984 11.467674622607674 -35.48145095196031 1.9724999999999966 0 0 0
333 3 -1.20021318401756 9.703416988360345 -36.36357976908397 1.9724999999999966 0 0 0
334 3 -1.20021318401756 12.349803439731339 -37.24570858620764 1.9724999999999966 0 0 0
335 3 -1.20021318401756 11.467674622607674 -35.48145095196031 0 0 0 0
336 1 1.19943714821764 14.114061073978675 -36.36357976908397 0 0 0 0
337 2 2.39958182118984 14.996189891102347 -33.71719331771297 1.9724999999999966 0 0 0
338 3 -1.20021318401756 13.23193225685501 -34.59932213483664 1.9724999999999966 0 0 0
339 3 -1.20021318401756 15.878318708226004 -35.4814509519603 1.9724999999999966 0 0 0
340 3 -1.20021318401756 14.996189891102347 -33.71719331771297 0 0 0 0
341 1 1.19943714821764 17.64257634247334 -34.59932213483664 0 0 0 0
342 2 2.39958182118984 18.524705159597005 -31.95293568346564 1.9724999999999966 0 0 0
343 3 -1.20021318401756 16.760447525349676 -32.83506450058931 1.9724999999999966 0 0 0
344 3 -1.20021318401756 19.406833976720677 -33.71719331771297 1.9724999999999966 0 0 0
345 3 -1.20021318401756 18.524705159597005 -31.95293568346564 0 0 0 0
346 1 1.19943714821764 21.171091610968006 -32.8350645005893 0 0 0 0
347 2 2.39958182118984 22.053220428091677 -30.18867804921831 1.9724999999999966 0 0 0
348 3 -1.20021318401756 20.288962793844348 -31.070806866341968 1.9724999999999966 0 0 0
349 3 -1.20021318401756 22.935349245215342 -31.95293568346564 1.9724999999999966 0 0 0
350 3 -1.20021318401756 22.053220428091677 -30.18867804921831 0 0 0 0
351 1 1.19943714821764 24.699606879462678 -31.070806866341968 0 0 0 0
352 2 2.39958182118984 25.58173569658635 -28.424420414970967 1.9724999999999966 0 0 0
353 3 -1.20021318401756 23.817478062339013 -29.30654923209464 1.9724999999999966 0 0 0
354 3 -1.20021318401756 26.463864513710007 -30.188678049218296 1.9724999999999966 0 0 0
355 3 -1.20021318401756 25.58173569658635 -28.424420414970967 0 0 0 0
356 1 1.19943714821764 28.22812214795735 -29.30654923209464 0 0 0 0
357 3 -1.20021318401756 27.34599333083368 -27.54229159784731 1.9724999999999966 0 0 0
358 3 -1.20021318401756 0 -39.00996622045497 1.9724999999999966 0 0 0
359 1 1.19943714821764 1.7642576342473433 -38.1278374033313 0 0 0 0
360 2 2.39958182118984 2.6463864513710007 -35.481450951960284 1.9724999999999966 0 0 0
361 3 -1.20021318401756 0.8821288171236574 -36.363579769083955 1.9724999999999966 0 0 0
362 3 -1.20021318401756 3.528515268494658 -37.24570858620763 1.9724999999999966 0 0 0
363 3 -1.20021318401756 2.6463864513710007 -35.481450951960284 0 0 0 0
364 1 1.19943714821764 5.292772902742001 -36.36357976908397 0 0 0 0
365 2 2.39958182118984 6.174901719865659 -33.717193317712955 1.9724999999999966 0 0 0
366 3 -1.20021318401756 4.41064408561833 -34.599322134836626 1.9724999999999966 0 0 0
367 3 -1.20021318401756 7.0570305369893305 -35.4814509519603 1.9724999999999966 0 0 0
368 3 -1.20021318401756 6.174901719865659 -33.717193317712955 0 0 0 0
369 1 1.19943714821764 8.821288171236674 -34.599322134836626 0 0 0 0
370 2 2.39958182118984 9.703416988360331 -31.952935683465626 1.9724999999999966 0 0 0
371 3 -1.20021318401756 7.939159354113002 -32.83506450058928 1.9724999999999966 0 0 0
372 3 -1.20021318401756 10.585545805484003 -33.71719331771297 1.9724999999999966 0 0 0
373 3 -1.20021318401756 9.703416988360331 -31.952935683465626 0 0 0 0
374 1 1.19943714821764 12.349803439731339 -32.8350645005893 0 0 0 0
375 2 2.39958182118984 13.231932256855004 -30.188678049218282 1.9724999999999966 0 0 0
376 3 -1.20021318401756 11.467674622607667 -31.070806866341954 1.9724999999999966 0 0 0
377 3 -1.20021318401756 14.114061073978675 -31.952935683465626 1.9724999999999966 0 0 0