LAMMPS data file via write_data, version 19 Nov 2024, timestep = 0, units =.1 metal
              
28890 atoms             
3 atom types            
              
0 237.520453066678 xlo xhi           
-142.512271840007 47.5040906133356 ylo yhi           
0 7.89 zlo zhi           
              
Masses              
              
1 87.62             
2 47.867             
3 15.999             
              
Atoms # charge            
              
1 2 2.4 231.9998789035244 -142.02273955691038 1.9725 0 0 0      
2 3 -1.2 231.9998789035244 -142.02273955691038 0.0 0 0 0      
3 2 2.4 235.5283941720191 -140.2584819226631 1.9725 0 0 0      
4 3 -1.2 233.76413653777175 -141.14061073978672 1.9725 0 0 0      
5 3 -1.2 236.41052298914275 -142.02273955691038 1.9725 0 0 0      
6 3 -1.2 235.5283941720191 -140.2584819226631 0.0 0 0 0      
7 3 -1.2 237.2926518062664 -139.3763531055394 1.9725 0 0 0      
8 2 2.4 223.1785907322877 -142.02273955691038 1.9725 0 0 0      
9 3 -1.2 223.1785907322877 -142.02273955691038 0.0 0 0 0      
10 2 2.4 226.7071060007824 -140.25848192266304 1.9725 0 0 0      
11 3 -1.2 224.9428483665351 -141.14061073978672 1.9725 0 0 0      
12 3 -1.2 227.5892348179061 -142.02273955691038 1.9725 0 0 0      
13 3 -1.2 226.7071060007824 -140.25848192266304 0.0 0 0 0      
14 1 1.2 229.35349245215343 -141.14061073978672 0.0 0 0 0      
15 2 2.4 230.2356212692771 -138.4942242884157 1.9725 0 0 0      
16 3 -1.2 228.4713636350297 -139.37635310553938 1.9725 0 0 0      
17 3 -1.2 231.11775008640075 -140.2584819226631 1.9725 0 0 0      
18 3 -1.2 230.2356212692771 -138.4942242884157 0.0 0 0 0      
19 1 1.2 232.8820077206481 -139.37635310553938 0.0 0 0 0      
20 2 2.4 233.76413653777175 -136.72996665416838 1.9725 0 0 0      
21 3 -1.2 231.9998789035244 -137.61209547129204 1.9725 0 0 0      
22 3 -1.2 234.64626535489543 -138.4942242884157 1.9725 0 0 0      
23 3 -1.2 233.76413653777175 -136.72996665416838 0.0 0 0 0      
24 1 1.2 236.41052298914275 -137.61209547129204 0.0 0 0 0      
25 2 2.4 237.2926518062664 -134.96570901992104 1.9725 0 0 0      
26 3 -1.2 235.5283941720191 -135.84783783704472 1.9725 0 0 0      
27 3 -1.2 237.2926518062664 -134.96570901992104 0.0 0 0 0      
28 2 2.4 214.35730256105109 -142.02273955691038 1.9725 0 0 0      
29 3 -1.2 214.35730256105109 -142.02273955691038 0.0 0 0 0      
30 2 2.4 217.88581782954577 -140.2584819226631 1.9725 0 0 0      
31 3 -1.2 216.1215601952984 -141.14061073978672 1.9725 0 0 0      
32 3 -1.2 218.76794664666943 -142.02273955691038 1.9725 0 0 0      
33 3 -1.2 217.88581782954577 -140.2584819226631 0.0 0 0 0      
34 1 1.2 220.53220428091677 -141.1406107397867 0.0 0 0 0      
35 2 2.4 221.4143330980404 -138.49422428841572 1.9725 0 0 0      
36 3 -1.2 219.6500754637931 -139.37635310553938 1.9725 0 0 0      
37 3 -1.2 222.2964619151641 -140.25848192266304 1.9725 0 0 0      
38 3 -1.2 221.4143330980404 -138.49422428841572 0.0 0 0 0      
39 1 1.2 224.06071954941137 -139.37635310553935 0.0 0 0 0      
40 2 2.4 224.9428483665351 -136.72996665416838 1.9725 0 0 0      
41 3 -1.2 223.1785907322877 -137.61209547129204 1.9725 0 0 0      
42 3 -1.2 225.82497718365877 -138.4942242884157 1.9725 0 0 0      
43 3 -1.2 224.9428483665351 -136.72996665416838 0.0 0 0 0      
44 1 1.2 227.5892348179061 -137.61209547129204 0.0 0 0 0      
45 2 2.4 228.47136363502975 -134.96570901992106 1.9725 0 0 0      
46 3 -1.2 226.7071060007824 -135.84783783704472 1.9725 0 0 0      
47 3 -1.2 229.35349245215343 -136.72996665416838 1.9725 0 0 0      
48 3 -1.2 228.47136363502975 -134.96570901992106 0.0 0 0 0      
49 1 1.2 231.11775008640075 -135.8478378370447 0.0 0 0 0      
50 2 2.4 231.9998789035244 -133.2014513856737 1.9725 0 0 0      
51 3 -1.2 230.2356212692771 -134.08358020279738 1.9725 0 0 0      
52 3 -1.2 232.8820077206481 -134.965709019921 1.9725 0 0 0      
53 3 -1.2 231.9998789035244 -133.2014513856737 0.0 0 0 0      
54 1 1.2 234.64626535489535 -134.08358020279735 0.0 0 0 0      
55 2 2.4 235.5283941720191 -131.43719375142638 1.9725 0 0 0      
56 3 -1.2 233.7641365377717 -132.31932256855004 1.9725 0 0 0      
57 3 -1.2 236.41052298914275 -133.2014513856737 1.9725 0 0 0      
58 3 -1.2 235.5283941720191 -131.43719375142638 0.0 0 0 0      
59 3 -1.2 237.2926518062664 -130.55506493430272 1.9725 0 0 0      
60 2 2.4 205.5360143898144 -142.02273955691038 1.9725 0 0 0      
61 3 -1.2 205.5360143898144 -142.02273955691038 0.0 0 0 0      
62 2 2.4 209.06452965830908 -140.2584819226631 1.9725 0 0 0      
63 3 -1.2 207.30027202406177 -141.14061073978672 1.9725 0 0 0      
64 3 -1.2 209.94665847543277 -142.02273955691038 1.9725 0 0 0      
65 3 -1.2 209.06452965830908 -140.2584819226631 0.0 0 0 0      
66 1 1.2 211.71091610968008 -141.14061073978672 0.0 0 0 0      
67 2 2.4 212.59304492680377 -138.49422428841572 1.9725 0 0 0      
68 3 -1.2 210.8287872925564 -139.3763531055394 1.9725 0 0 0      
69 3 -1.2 213.47517374392743 -140.25848192266304 1.9725 0 0 0      
70 3 -1.2 212.59304492680377 -138.49422428841572 0.0 0 0 0      
71 1 1.2 215.23943137817477 -139.37635310553938 0.0 0 0 0      
72 2 2.4 216.1215601952984 -136.72996665416838 1.9725 0 0 0      
73 3 -1.2 214.35730256105109 -137.61209547129206 1.9725 0 0 0      
74 3 -1.2 217.0036890124221 -138.4942242884157 1.9725 0 0 0      
75 3 -1.2 216.1215601952984 -136.72996665416838 0.0 0 0 0      
76 1 1.2 218.76794664666943 -137.61209547129204 0.0 0 0 0      
77 2 2.4 219.6500754637931 -134.96570901992106 1.9725 0 0 0      
78 3 -1.2 217.88581782954577 -135.84783783704472 1.9725 0 0 0      
79 3 -1.2 220.53220428091677 -136.72996665416838 1.9725 0 0 0      
80 3 -1.2 219.6500754637931 -134.96570901992106 0.0 0 0 0      
81 1 1.2 222.2964619151641 -135.84783783704472 0.0 0 0 0      
82 2 2.4 223.1785907322877 -133.20145138567372 1.9725 0 0 0      
83 3 -1.2 221.4143330980404 -134.0835802027974 1.9725 0 0 0      
84 3 -1.2 224.06071954941137 -134.96570901992104 1.9725 0 0 0      
85 3 -1.2 223.1785907322877 -133.20145138567372 0.0 0 0 0      
86 1 1.2 225.82497718365877 -134.08358020279738 0.0 0 0 0      
87 2 2.4 226.7071060007824 -131.43719375142638 1.9725 0 0 0      
88 3 -1.2 224.9428483665351 -132.31932256855006 1.9725 0 0 0      
89 3 -1.2 227.5892348179061 -133.2014513856737 1.9725 0 0 0      
90 3 -1.2 226.7071060007824 -131.43719375142638 0.0 0 0 0      
91 1 1.2 229.35349245215343 -132.31932256855004 0.0 0 0 0      
92 2 2.4 230.2356212692771 -129.67293611717906 1.9725 0 0 0      
93 3 -1.2 228.47136363502975 -130.55506493430272 1.9725 0 0 0      
94 3 -1.2 231.11775008640075 -131.43719375142638 1.9725 0 0 0      
95 3 -1.2 230.2356212692771 -129.67293611717906 0.0 0 0 0      
96 1 1.2 232.8820077206481 -130.55506493430272 0.0 0 0 0      
97 2 2.4 233.76413653777175 -127.90867848293172 1.9725 0 0 0      
98 3 -1.2 231.9998789035244 -128.7908073000554 1.9725 0 0 0      
99 3 -1.2 234.64626535489543 -129.67293611717903 1.9725 0 0 0      
100 3 -1.2 233.76413653777175 -127.90867848293172 0.0 0 0 0      
101 1 1.2 236.41052298914275 -128.79080730005538 0.0 0 0 0      
102 2 2.4 237.2926518062664 -126.1444208486844 1.9725 0 0 0      
103 3 -1.2 235.5283941720191 -127.02654966580806 1.9725 0 0 0      
104 3 -1.2 237.2926518062664 -126.1444208486844 0.0 0 0 0      
105 2 2.4 196.7147262185777 -142.02273955691038 1.9725 0 0 0      
106 3 -1.2 196.7147262185777 -142.02273955691038 0.0 0 0 0      
107 2 2.4 200.2432414870724 -140.25848192266304 1.9725 0 0 0      
108 3 -1.2 198.47898385282508 -141.14061073978672 1.9725 0 0 0      
109 3 -1.2 201.12537030419605 -142.02273955691038 1.9725 0 0 0      
110 3 -1.2 200.2432414870724 -140.25848192266304 0.0 0 0 0      
111 1 1.2 202.88962793844345 -141.14061073978672 0.0 0 0 0      
112 2 2.4 203.77175675556708 -138.4942242884157 1.9725 0 0 0      
113 3 -1.2 202.0074991213197 -139.37635310553938 1.9725 0 0 0      
114 3 -1.2 204.65388557269077 -140.2584819226631 1.9725 0 0 0      
115 3 -1.2 203.77175675556708 -138.4942242884157 0.0 0 0 0      
116 1 1.2 206.4181432069381 -139.37635310553938 0.0 0 0 0      
117 2 2.4 207.30027202406177 -136.72996665416838 1.9725 0 0 0      
118 3 -1.2 205.5360143898144 -137.61209547129204 1.9725 0 0 0      
119 3 -1.2 208.18240084118543 -138.49422428841572 1.9725 0 0 0      
120 3 -1.2 207.30027202406177 -136.72996665416838 0.0 0 0 0      
121 1 1.2 209.94665847543277 -137.61209547129204 0.0 0 0 0      
122 2 2.4 210.8287872925564 -134.96570901992104 1.9725 0 0 0      
123 3 -1.2 209.06452965830908 -135.84783783704472 1.9725 0 0 0      
124 3 -1.2 211.71091610968008 -136.72996665416838 1.9725 0 0 0      
125 3 -1.2 210.8287872925564 -134.96570901992104 0.0 0 0 0      
126 1 1.2 213.47517374392743 -135.84783783704472 0.0 0 0 0      
127 2 2.4 214.35730256105109 -133.2014513856737 1.9725 0 0 0      
128 3 -1.2 212.5930449268037 -134.08358020279738 1.9725 0 0 0      
129 3 -1.2 215.23943137817477 -134.96570901992106 1.9725 0 0 0      
130 3 -1.2 214.35730256105109 -133.2014513856737 0.0 0 0 0      
131 1 1.2 217.0036890124221 -134.08358020279738 0.0 0 0 0      
132 2 2.4 217.88581782954577 -131.43719375142638 1.9725 0 0 0      
133 3 -1.2 216.1215601952984 -132.31932256855004 1.9725 0 0 0      
134 3 -1.2 218.76794664666943 -133.20145138567372 1.9725 0 0 0      
135 3 -1.2 217.88581782954577 -131.43719375142638 0.0 0 0 0      
136 1 1.2 220.53220428091677 -132.31932256855004 0.0 0 0 0      
137 2 2.4 221.4143330980404 -129.67293611717903 1.9725 0 0 0      
138 3 -1.2 219.6500754637931 -130.55506493430272 1.9725 0 0 0      
139 3 -1.2 222.2964619151641 -131.43719375142638 1.9725 0 0 0      
140 3 -1.2 221.4143330980404 -129.67293611717903 0.0 0 0 0      
141 1 1.2 224.06071954941137 -130.55506493430272 0.0 0 0 0      
142 2 2.4 224.9428483665351 -127.9086784829317 1.9725 0 0 0      
143 3 -1.2 223.1785907322877 -128.79080730005538 1.9725 0 0 0      
144 3 -1.2 225.82497718365877 -129.67293611717906 1.9725 0 0 0      
145 3 -1.2 224.9428483665351 -127.9086784829317 0.0 0 0 0      
146 1 1.2 227.5892348179061 -128.79080730005538 0.0 0 0 0      
147 2 2.4 228.47136363502975 -126.14442084868436 1.9725 0 0 0      
148 3 -1.2 226.7071060007824 -127.02654966580803 1.9725 0 0 0      
149 3 -1.2 229.35349245215343 -127.9086784829317 1.9725 0 0 0      
150 3 -1.2 228.47136363502975 -126.14442084868436 0.0 0 0 0      
151 1 1.2 231.11775008640075 -127.02654966580803 0.0 0 0 0      
152 2 2.4 231.9998789035244 -124.38016321443703 1.9725 0 0 0      
153 3 -1.2 230.2356212692771 -125.2622920315607 1.9725 0 0 0      
154 3 -1.2 232.8820077206481 -126.14442084868438 1.9725 0 0 0      
155 3 -1.2 231.9998789035244 -124.38016321443703 0.0 0 0 0      
156 1 1.2 234.64626535489535 -125.26229203156072 0.0 0 0 0      
157 2 2.4 235.5283941720191 -122.6159055801897 1.9725 0 0 0      
158 3 -1.2 233.7641365377717 -123.49803439731338 1.9725 0 0 0      
159 3 -1.2 236.41052298914275 -124.38016321443703 1.9725 0 0 0      
160 3 -1.2 235.5283941720191 -122.6159055801897 0.0 0 0 0      
161 3 -1.2 237.2926518062664 -121.73377676306605 1.9725 0 0 0      
162 2 2.4 187.89343804734108 -142.02273955691038 1.9725 0 0 0      
163 3 -1.2 187.89343804734108 -142.02273955691038 0.0 0 0 0      
164 2 2.4 191.4219533158357 -140.2584819226631 1.9725 0 0 0      
165 3 -1.2 189.6576956815884 -141.14061073978672 1.9725 0 0 0      
166 3 -1.2 192.30408213295945 -142.02273955691038 1.9725 0 0 0      
167 3 -1.2 191.4219533158357 -140.2584819226631 0.0 0 0 0      
168 1 1.2 194.06833976720677 -141.14061073978672 0.0 0 0 0      
169 2 2.4 194.9504685843304 -138.49422428841572 1.9725 0 0 0      
170 3 -1.2 193.18621095008308 -139.37635310553938 1.9725 0 0 0      
171 3 -1.2 195.83259740145405 -140.2584819226631 1.9725 0 0 0      
172 3 -1.2 194.9504685843304 -138.49422428841572 0.0 0 0 0      
173 1 1.2 197.59685503570145 -139.3763531055394 0.0 0 0 0      
174 2 2.4 198.47898385282508 -136.72996665416838 1.9725 0 0 0      
175 3 -1.2 196.71472621857777 -137.61209547129204 1.9725 0 0 0      
176 3 -1.2 199.36111266994877 -138.49422428841572 1.9725 0 0 0      
177 3 -1.2 198.47898385282508 -136.72996665416838 0.0 0 0 0      
178 1 1.2 201.12537030419605 -137.61209547129206 0.0 0 0 0      
179 2 2.4 202.0074991213197 -134.96570901992106 1.9725 0 0 0      
180 3 -1.2 200.2432414870724 -135.84783783704472 1.9725 0 0 0      
181 3 -1.2 202.88962793844345 -136.72996665416838 1.9725 0 0 0      
182 3 -1.2 202.0074991213197 -134.96570901992106 0.0 0 0 0      
183 1 1.2 204.65388557269077 -135.84783783704472 0.0 0 0 0      
184 2 2.4 205.5360143898144 -133.20145138567372 1.9725 0 0 0      
185 3 -1.2 203.77175675556708 -134.08358020279738 1.9725 0 0 0      
186 3 -1.2 206.4181432069381 -134.96570901992106 1.9725 0 0 0      
187 3 -1.2 205.5360143898144 -133.20145138567372 0.0 0 0 0      
188 1 1.2 208.18240084118543 -134.0835802027974 0.0 0 0 0      
189 2 2.4 209.06452965830908 -131.43719375142638 1.9725 0 0 0      
190 3 -1.2 207.30027202406177 -132.31932256855004 1.9725 0 0 0      
191 3 -1.2 209.94665847543277 -133.20145138567372 1.9725 0 0 0      
192 3 -1.2 209.06452965830908 -131.43719375142638 0.0 0 0 0      
193 1 1.2 211.71091610968008 -132.31932256855006 0.0 0 0 0      
194 2 2.4 212.5930449268037 -129.67293611717906 1.9725 0 0 0      
195 3 -1.2 210.8287872925564 -130.55506493430272 1.9725 0 0 0      
196 3 -1.2 213.47517374392743 -131.43719375142638 1.9725 0 0 0      
197 3 -1.2 212.5930449268037 -129.67293611717906 0.0 0 0 0      
198 1 1.2 215.23943137817477 -130.55506493430272 0.0 0 0 0      
199 2 2.4 216.1215601952984 -127.90867848293172 1.9725 0 0 0      
200 3 -1.2 214.35730256105109 -128.79080730005538 1.9725 0 0 0      
201 3 -1.2 217.0036890124221 -129.67293611717906 1.9725 0 0 0      
202 3 -1.2 216.1215601952984 -127.90867848293172 0.0 0 0 0      
203 1 1.2 218.76794664666943 -128.7908073000554 0.0 0 0 0      
204 2 2.4 219.6500754637931 -126.14442084868438 1.9725 0 0 0      
205 3 -1.2 217.88581782954577 -127.02654966580803 1.9725 0 0 0      
206 3 -1.2 220.53220428091677 -127.90867848293172 1.9725 0 0 0      
207 3 -1.2 219.6500754637931 -126.14442084868438 0.0 0 0 0      
208 1 1.2 222.2964619151641 -127.02654966580806 0.0 0 0 0      
209 2 2.4 223.1785907322877 -124.38016321443703 1.9725 0 0 0      
210 3 -1.2 221.4143330980404 -125.26229203156072 1.9725 0 0 0      
211 3 -1.2 224.06071954941143 -126.1444208486844 1.9725 0 0 0      
212 3 -1.2 223.1785907322877 -124.38016321443703 0.0 0 0 0      
213 1 1.2 225.82497718365877 -125.26229203156072 0.0 0 0 0      
214 2 2.4 226.7071060007825 -122.6159055801897 1.9725 0 0 0      
215 3 -1.2 224.9428483665351 -123.49803439731338 1.9725 0 0 0      
216 3 -1.2 227.5892348179061 -124.38016321443703 1.9725 0 0 0      
217 3 -1.2 226.7071060007825 -122.6159055801897 0.0 0 0 0      
218 1 1.2 229.35349245215343 -123.4980343973134 0.0 0 0 0      
219 2 2.4 230.2356212692771 -120.85164794594236 1.9725 0 0 0      
220 3 -1.2 228.47136363502975 -121.73377676306605 1.9725 0 0 0      
221 3 -1.2 231.11775008640075 -122.61590558018972 1.9725 0 0 0      
222 3 -1.2 230.2356212692771 -120.85164794594236 0.0 0 0 0      
223 1 1.2 232.8820077206481 -121.73377676306606 0.0 0 0 0      
224 2 2.4 233.7641365377717 -119.08739031169505 1.9725 0 0 0      
225 3 -1.2 231.9998789035244 -119.96951912881872 1.9725 0 0 0      
226 3 -1.2 234.64626535489543 -120.8516479459424 1.9725 0 0 0      
227 3 -1.2 233.7641365377717 -119.08739031169505 0.0 0 0 0      
228 1 1.2 236.41052298914275 -119.96951912881872 0.0 0 0 0      
229 2 2.4 237.2926518062664 -117.32313267744772 1.9725 0 0 0      
230 3 -1.2 235.52839417201903 -118.2052614945714 1.9725 0 0 0      
231 3 -1.2 237.2926518062664 -117.32313267744772 0.0 0 0 0      
232 2 2.4 179.0721498761044 -142.02273955691038 1.9725 0 0 0      
233 3 -1.2 179.0721498761044 -142.02273955691038 0.0 0 0 0      
234 2 2.4 182.60066514459908 -140.25848192266304 1.9725 0 0 0      
235 3 -1.2 180.8364075103517 -141.1406107397867 1.9725 0 0 0      
236 3 -1.2 183.48279396172276 -142.02273955691038 1.9725 0 0 0      
237 3 -1.2 182.60066514459908 -140.25848192266304 0.0 0 0 0      
238 1 1.2 185.24705159597005 -141.14061073978672 0.0 0 0 0      
239 2 2.4 186.1291804130937 -138.4942242884157 1.9725 0 0 0      
240 3 -1.2 184.3649227788464 -139.37635310553935 1.9725 0 0 0      
241 3 -1.2 187.01130923021745 -140.25848192266304 1.9725 0 0 0      
242 3 -1.2 186.1291804130937 -138.4942242884157 0.0 0 0 0      
243 1 1.2 188.77556686446476 -139.37635310553938 0.0 0 0 0      
244 2 2.4 189.6576956815884 -136.72996665416838 1.9725 0 0 0      
245 3 -1.2 187.89343804734108 -137.61209547129204 1.9725 0 0 0      
246 3 -1.2 190.53982449871205 -138.4942242884157 1.9725 0 0 0      
247 3 -1.2 189.6576956815884 -136.72996665416838 0.0 0 0 0      
248 1 1.2 192.30408213295937 -137.61209547129204 0.0 0 0 0      
249 2 2.4 193.18621095008305 -134.96570901992104 1.9725 0 0 0      
250 3 -1.2 191.4219533158357 -135.8478378370447 1.9725 0 0 0      
251 3 -1.2 194.06833976720677 -136.72996665416838 1.9725 0 0 0      
252 3 -1.2 193.18621095008305 -134.96570901992104 0.0 0 0 0      
253 1 1.2 195.83259740145405 -135.84783783704472 0.0 0 0 0      
254 2 2.4 196.7147262185777 -133.2014513856737 1.9725 0 0 0      
255 3 -1.2 194.9504685843304 -134.08358020279735 1.9725 0 0 0      
256 3 -1.2 197.59685503570145 -134.96570901992104 1.9725 0 0 0      
257 3 -1.2 196.7147262185777 -133.2014513856737 0.0 0 0 0      
258 1 1.2 199.36111266994877 -134.08358020279738 0.0 0 0 0      
259 2 2.4 200.2432414870724 -131.43719375142638 1.9725 0 0 0      
260 3 -1.2 198.47898385282508 -132.31932256855004 1.9725 0 0 0      
261 3 -1.2 201.12537030419605 -133.2014513856737 1.9725 0 0 0      
262 3 -1.2 200.2432414870724 -131.43719375142638 0.0 0 0 0      
263 1 1.2 202.88962793844345 -132.31932256855004 0.0 0 0 0      
264 2 2.4 203.77175675556708 -129.67293611717903 1.9725 0 0 0      
265 3 -1.2 202.0074991213197 -130.5550649343027 1.9725 0 0 0      
266 3 -1.2 204.65388557269077 -131.43719375142638 1.9725 0 0 0      
267 3 -1.2 203.77175675556708 -129.67293611717903 0.0 0 0 0      
268 1 1.2 206.41814320693803 -130.55506493430272 0.0 0 0 0      
269 2 2.4 207.30027202406177 -127.90867848293168 1.9725 0 0 0      
270 3 -1.2 205.5360143898144 -128.79080730005535 1.9725 0 0 0      
271 3 -1.2 208.18240084118543 -129.67293611717903 1.9725 0 0 0      
272 3 -1.2 207.30027202406177 -127.90867848293168 0.0 0 0 0      
273 1 1.2 209.94665847543277 -128.79080730005538 0.0 0 0 0      
274 2 2.4 210.8287872925564 -126.14442084868436 1.9725 0 0 0      
275 3 -1.2 209.06452965830908 -127.02654966580803 1.9725 0 0 0      
276 3 -1.2 211.71091610968008 -127.9086784829317 1.9725 0 0 0      
277 3 -1.2 210.8287872925564 -126.14442084868436 0.0 0 0 0      
278 1 1.2 213.47517374392737 -127.02654966580803 0.0 0 0 0      
279 2 2.4 214.35730256105109 -124.38016321443703 1.9725 0 0 0      
280 3 -1.2 212.5930449268037 -125.26229203156068 1.9725 0 0 0      
281 3 -1.2 215.23943137817477 -126.14442084868438 1.9725 0 0 0      
282 3 -1.2 214.35730256105109 -124.38016321443703 0.0 0 0 0      
283 1 1.2 217.0036890124221 -125.2622920315607 0.0 0 0 0      
284 2 2.4 217.8858178295457 -122.61590558018968 1.9725 0 0 0      
285 3 -1.2 216.1215601952984 -123.49803439731336 1.9725 0 0 0      
286 3 -1.2 218.76794664666943 -124.38016321443703 1.9725 0 0 0      
287 3 -1.2 217.8858178295457 -122.61590558018968 0.0 0 0 0      
288 1 1.2 220.53220428091677 -123.49803439731338 0.0 0 0 0      
289 2 2.4 221.4143330980404 -120.85164794594236 1.9725 0 0 0      
290 3 -1.2 219.6500754637931 -121.73377676306605 1.9725 0 0 0      
291 3 -1.2 222.2964619151641 -122.6159055801897 1.9725 0 0 0      
292 3 -1.2 221.4143330980404 -120.85164794594236 0.0 0 0 0      
293 1 1.2 224.06071954941143 -121.73377676306605 0.0 0 0 0      
294 2 2.4 224.9428483665351 -119.08739031169502 1.9725 0 0 0      
295 3 -1.2 223.1785907322877 -119.96951912881867 1.9725 0 0 0      
296 3 -1.2 225.82497718365877 -120.85164794594236 1.9725 0 0 0      
297 3 -1.2 224.9428483665351 -119.08739031169502 0.0 0 0 0      
298 1 1.2 227.5892348179061 -119.9695191288187 0.0 0 0 0      
299 2 2.4 228.47136363502975 -117.32313267744767 1.9725 0 0 0      
300 3 -1.2 226.7071060007824 -118.20526149457136 1.9725 0 0 0      
301 3 -1.2 229.35349245215343 -119.08739031169505 1.9725 0 0 0      
302 3 -1.2 228.47136363502975 -117.32313267744767 0.0 0 0 0      
303 1 1.2 231.11775008640075 -118.20526149457136 0.0 0 0 0      
304 2 2.4 231.9998789035244 -115.55887504320036 1.9725 0 0 0      
305 3 -1.2 230.2356212692771 -116.44100386032405 1.9725 0 0 0      
306 3 -1.2 232.8820077206481 -117.3231326774477 1.9725 0 0 0      
307 3 -1.2 231.9998789035244 -115.55887504320036 0.0 0 0 0      
308 1 1.2 234.64626535489535 -116.44100386032405 0.0 0 0 0      
309 2 2.4 235.52839417201903 -113.79461740895304 1.9725 0 0 0      
310 3 -1.2 233.7641365377717 -114.6767462260767 1.9725 0 0 0      
311 3 -1.2 236.41052298914275 -115.55887504320036 1.9725 0 0 0      
312 3 -1.2 235.52839417201903 -113.79461740895304 0.0 0 0 0      
313 3 -1.2 237.2926518062664 -112.91248859182936 1.9725 0 0 0      
314 2 2.4 170.2508617048677 -142.02273955691038 1.9725 0 0 0      
315 3 -1.2 170.2508617048677 -142.02273955691038 0.0 0 0 0      
316 2 2.4 173.7793769733624 -140.25848192266304 1.9725 0 0 0      
317 3 -1.2 172.01511933911507 -141.14061073978672 1.9725 0 0 0      
318 3 -1.2 174.66150579048605 -142.02273955691038 1.9725 0 0 0      
319 3 -1.2 173.7793769733624 -140.25848192266304 0.0 0 0 0      
320 1 1.2 176.42576342473342 -141.14061073978672 0.0 0 0 0      
321 2 2.4 177.30789224185708 -138.49422428841572 1.9725 0 0 0      
322 3 -1.2 175.5436346076097 -139.37635310553938 1.9725 0 0 0      
323 3 -1.2 178.19002105898073 -140.2584819226631 1.9725 0 0 0      
324 3 -1.2 177.30789224185708 -138.49422428841572 0.0 0 0 0      
325 1 1.2 179.95427869322805 -139.37635310553938 0.0 0 0 0      
326 2 2.4 180.8364075103517 -136.72996665416838 1.9725 0 0 0      
327 3 -1.2 179.0721498761044 -137.61209547129204 1.9725 0 0 0      
328 3 -1.2 181.71853632747545 -138.49422428841572 1.9725 0 0 0      
329 3 -1.2 180.8364075103517 -136.72996665416838 0.0 0 0 0      
330 1 1.2 183.48279396172276 -137.61209547129204 0.0 0 0 0      
331 2 2.4 184.3649227788464 -134.96570901992104 1.9725 0 0 0      
332 3 -1.2 182.60066514459908 -135.84783783704472 1.9725 0 0 0      
333 3 -1.2 185.24705159597005 -136.72996665416838 1.9725 0 0 0      
334 3 -1.2 184.3649227788464 -134.96570901992104 0.0 0 0 0      
335 1 1.2 187.01130923021745 -135.84783783704472 0.0 0 0 0      
336 2 2.4 187.89343804734108 -133.2014513856737 1.9725 0 0 0      
337 3 -1.2 186.12918041309376 -134.08358020279738 1.9725 0 0 0      
338 3 -1.2 188.77556686446476 -134.96570901992106 1.9725 0 0 0      
339 3 -1.2 187.89343804734108 -133.2014513856737 0.0 0 0 0      
340 1 1.2 190.53982449871205 -134.08358020279738 0.0 0 0 0      
341 2 2.4 191.4219533158357 -131.43719375142638 1.9725 0 0 0      
342 3 -1.2 189.6576956815884 -132.31932256855004 1.9725 0 0 0      
343 3 -1.2 192.30408213295937 -133.20145138567372 1.9725 0 0 0      
344 3 -1.2 191.4219533158357 -131.43719375142638 0.0 0 0 0      
345 1 1.2 194.06833976720677 -132.31932256855004 0.0 0 0 0      
346 2 2.4 194.9504685843304 -129.67293611717903 1.9725 0 0 0      
347 3 -1.2 193.18621095008308 -130.55506493430272 1.9725 0 0 0      
348 3 -1.2 195.83259740145405 -131.43719375142638 1.9725 0 0 0      
349 3 -1.2 194.9504685843304 -129.67293611717903 0.0 0 0 0      
350 1 1.2 197.59685503570145 -130.55506493430272 0.0 0 0 0      
351 2 2.4 198.47898385282508 -127.9086784829317 1.9725 0 0 0      
352 3 -1.2 196.71472621857777 -128.79080730005538 1.9725 0 0 0      
353 3 -1.2 199.36111266994877 -129.67293611717906 1.9725 0 0 0      
354 3 -1.2 198.47898385282508 -127.9086784829317 0.0 0 0 0      
355 1 1.2 201.12537030419605 -128.79080730005538 0.0 0 0 0      
356 2 2.4 202.0074991213197 -126.14442084868438 1.9725 0 0 0      
357 3 -1.2 200.2432414870724 -127.02654966580803 1.9725 0 0 0      
358 3 -1.2 202.88962793844345 -127.90867848293172 1.9725 0 0 0      
359 3 -1.2 202.0074991213197 -126.14442084868438 0.0 0 0 0      
360 1 1.2 204.65388557269077 -127.02654966580803 0.0 0 0 0      
361 2 2.4 205.5360143898144 -124.38016321443703 1.9725 0 0 0      
362 3 -1.2 203.77175675556708 -125.2622920315607 1.9725 0 0 0      
363 3 -1.2 206.4181432069381 -126.14442084868438 1.9725 0 0 0      
364 3 -1.2 205.5360143898144 -124.38016321443703 0.0 0 0 0      
365 1 1.2 208.18240084118543 -125.26229203156072 0.0 0 0 0      
366 2 2.4 209.06452965830908 -122.6159055801897 1.9725 0 0 0      
367 3 -1.2 207.30027202406177 -123.49803439731338 1.9725 0 0 0      
368 3 -1.2 209.94665847543277 -124.38016321443703 1.9725 0 0 0      
369 3 -1.2 209.06452965830908 -122.6159055801897 0.0 0 0 0      
370 1 1.2 211.71091610968008 -123.49803439731338 0.0 0 0 0      
371 2 2.4 212.5930449268037 -120.85164794594236 1.9725 0 0 0      
372 3 -1.2 210.8287872925564 -121.73377676306605 1.9725 0 0 0      
373 3 -1.2 213.47517374392743 -122.61590558018972 1.9725 0 0 0      
374 3 -1.2 212.5930449268037 -120.85164794594236 0.0 0 0 0      
375 1 1.2 215.23943137817477 -121.73377676306605 0.0 0 0 0      
376 2 2.4 216.1215601952984 -119.08739031169505 1.9725 0 0 0      
377 3 -1.2 214.35730256105109 -119.9695191288187 1.9725 0 0 0      
378 3 -1.2 217.0036890124221 -120.85164794594236 1.9725 0 0 0      
379 3 -1.2 216.1215601952984 -119.08739031169505 0.0 0 0 0      
380 1 1.2 218.76794664666943 -119.96951912881872 0.0 0 0 0      
381 2 2.4 219.6500754637931 -117.3231326774477 1.9725 0 0 0      
382 3 -1.2 217.8858178295457 -118.20526149457136 1.9725 0 0 0      
383 3 -1.2 220.53220428091677 -119.08739031169505 1.9725 0 0 0      
384 3 -1.2 219.6500754637931 -117.3231326774477 0.0 0 0 0      
385 1 1.2 222.2964619151641 -118.20526149457136 0.0 0 0 0      
386 2 2.4 223.17859073228777 -115.55887504320036 1.9725 0 0 0      
387 3 -1.2 221.4143330980404 -116.44100386032405 1.9725 0 0 0      
388 3 -1.2 224.06071954941143 -117.3231326774477 1.9725 0 0 0      
389 3 -1.2 223.17859073228777 -115.55887504320036 0.0 0 0 0      
390 1 1.2 225.82497718365877 -116.44100386032405 0.0 0 0 0      
391 2 2.4 226.7071060007824 -113.79461740895304 1.9725 0 0 0      
392 3 -1.2 224.9428483665351 -114.6767462260767 1.9725 0 0 0      
393 3 -1.2 227.5892348179061 -115.55887504320036 1.9725 0 0 0      
394 3 -1.2 226.7071060007824 -113.79461740895304 0.0 0 0 0      
395 1 1.2 229.35349245215343 -114.67674622607672 0.0 0 0 0      
396 2 2.4 230.2356212692771 -112.0303597747057 1.9725 0 0 0      
397 3 -1.2 228.4713636350297 -112.91248859182936 1.9725 0 0 0      
398 3 -1.2 231.11775008640075 -113.79461740895304 1.9725 0 0 0      
399 3 -1.2 230.2356212692771 -112.0303597747057 0.0 0 0 0      
400 1 1.2 232.8820077206481 -112.9124885918294 0.0 0 0 0      
401 2 2.4 233.7641365377717 -110.26610214045836 1.9725 0 0 0      
402 3 -1.2 231.9998789035244 -111.14823095758204 1.9725 0 0 0      
403 3 -1.2 234.64626535489535 -112.03035977470572 1.9725 0 0 0      
404 3 -1.2 233.7641365377717 -110.26610214045836 0.0 0 0 0      
405 1 1.2 236.41052298914275 -111.14823095758204 0.0 0 0 0      
406 2 2.4 237.2926518062664 -108.50184450621104 1.9725 0 0 0      
407 3 -1.2 235.5283941720191 -109.3839733233347 1.9725 0 0 0      
408 3 -1.2 237.2926518062664 -108.50184450621104 0.0 0 0 0      
409 2 2.4 161.42957353363107 -142.02273955691038 1.9725 0 0 0      
410 3 -1.2 161.42957353363107 -142.02273955691038 0.0 0 0 0      
411 2 2.4 164.95808880212576 -140.2584819226631 1.9725 0 0 0      
412 3 -1.2 163.1938311678784 -141.14061073978672 1.9725 0 0 0      
413 3 -1.2 165.84021761924942 -142.02273955691038 1.9725 0 0 0      
414 3 -1.2 164.95808880212576 -140.2584819226631 0.0 0 0 0      
415 1 1.2 167.60447525349673 -141.14061073978672 0.0 0 0 0      
416 2 2.4 168.4866040706204 -138.49422428841572 1.9725 0 0 0      
417 3 -1.2 166.72234643637307 -139.37635310553938 1.9725 0 0 0      
418 3 -1.2 169.36873288774405 -140.2584819226631 1.9725 0 0 0      
419 3 -1.2 168.4866040706204 -138.49422428841572 0.0 0 0 0      
420 1 1.2 171.13299052199142 -139.3763531055394 0.0 0 0 0      
421 2 2.4 172.01511933911507 -136.72996665416838 1.9725 0 0 0      
422 3 -1.2 170.2508617048677 -137.61209547129204 1.9725 0 0 0      
423 3 -1.2 172.89724815623873 -138.49422428841572 1.9725 0 0 0      
424 3 -1.2 172.01511933911507 -136.72996665416838 0.0 0 0 0      
425 1 1.2 174.66150579048605 -137.61209547129206 0.0 0 0 0      
426 2 2.4 175.5436346076097 -134.96570901992106 1.9725 0 0 0      
427 3 -1.2 173.7793769733624 -135.84783783704472 1.9725 0 0 0      
428 3 -1.2 176.42576342473342 -136.7299666541684 1.9725 0 0 0      
429 3 -1.2 175.5436346076097 -134.96570901992106 0.0 0 0 0      
430 1 1.2 178.19002105898073 -135.84783783704472 0.0 0 0 0      
431 2 2.4 179.0721498761044 -133.20145138567372 1.9725 0 0 0      
432 3 -1.2 177.30789224185708 -134.08358020279738 1.9725 0 0 0      
433 3 -1.2 179.95427869322805 -134.96570901992106 1.9725 0 0 0      
434 3 -1.2 179.0721498761044 -133.20145138567372 0.0 0 0 0      
435 1 1.2 181.71853632747545 -134.0835802027974 0.0 0 0 0      
436 2 2.4 182.60066514459908 -131.43719375142638 1.9725 0 0 0      
437 3 -1.2 180.8364075103517 -132.31932256855004 1.9725 0 0 0      
438 3 -1.2 183.48279396172276 -133.20145138567372 1.9725 0 0 0      
439 3 -1.2 182.60066514459908 -131.43719375142638 0.0 0 0 0      
440 1 1.2 185.2470515959701 -132.31932256855006 0.0 0 0 0      
441 2 2.4 186.12918041309376 -129.67293611717906 1.9725 0 0 0      
442 3 -1.2 184.3649227788464 -130.55506493430272 1.9725 0 0 0      
443 3 -1.2 187.01130923021745 -131.43719375142638 1.9725 0 0 0      
444 3 -1.2 186.12918041309376 -129.67293611717906 0.0 0 0 0      