LAMMPS data file via write_data, version 19 Nov 2024, timestep = 0, units = metal

14472 atoms
3 atom types

0 237.520453066678 xlo xhi
-47.5040906133356 47.5040906133356 ylo yhi
0 7.89 zlo zhi

Masses

1 87.62
2 47.867
3 15.999

Atoms # charge

1 2 2.4 237.2926518062664 -46.75282730755437 1.9725000000000001 0 0 0
2 3 -1.2 237.2926518062664 -46.75282730755437 0 0 0 0
3 2 2.4 228.47136363502977 -46.75282730755434 1.9725000000000001 0 0 0
4 3 -1.2 228.47136363502977 -46.75282730755434 0 0 0 0
5 2 2.4 231.9998789035244 -44.98856967330701 1.9725000000000001 0 0 0
6 3 -1.2 230.2356212692771 -45.870698490430684 1.9725000000000001 0 0 0
7 3 -1.2 232.88200772064806 -46.752827307554355 1.9725000000000001 0 0 0
8 3 -1.2 231.9998789035244 -44.98856967330701 0 0 0 0
9 1 1.2 234.64626535489538 -45.8706984904307 0 0 0 0
10 2 2.4 235.5283941720191 -43.22431203905968 1.9725000000000001 0 0 0
11 3 -1.2 233.76413653777172 -44.106440856183355 1.9725000000000001 0 0 0
12 3 -1.2 236.41052298914275 -44.988569673307026 1.9725000000000001 0 0 0
13 3 -1.2 235.5283941720191 -43.22431203905968 0 0 0 0
14 3 -1.2 237.2926518062664 -42.342183221936025 1.9725000000000001 0 0 0
15 2 2.4 219.6500754637931 -46.752827307554355 1.9725000000000001 0 0 0
16 3 -1.2 219.6500754637931 -46.752827307554355 0 0 0 0
17 2 2.4 223.17859073228772 -44.98856967330701 1.9725000000000001 0 0 0
18 3 -1.2 221.4143330980404 -45.87069849043067 1.9725000000000001 0 0 0
19 3 -1.2 224.06071954941137 -46.75282730755434 1.9725000000000001 0 0 0
20 3 -1.2 223.17859073228772 -44.98856967330701 0 0 0 0
21 1 1.2 225.82497718365875 -45.87069849043067 0 0 0 0
22 2 2.4 226.70710600078246 -43.22431203905967 1.9725000000000001 0 0 0
23 3 -1.2 224.9428483665351 -44.10644085618334 1.9725000000000001 0 0 0
24 3 -1.2 227.58923481790612 -44.988569673307 1.9725000000000001 0 0 0
25 3 -1.2 226.70710600078246 -43.22431203905967 0 0 0 0
26 1 1.2 229.35349245215343 -44.10644085618334 0 0 0 0
27 2 2.4 230.2356212692771 -41.46005440481234 1.9725000000000001 0 0 0
28 3 -1.2 228.47136363502977 -42.34218322193601 1.9725000000000001 0 0 0
29 3 -1.2 231.11775008640075 -43.22431203905967 1.9725000000000001 0 0 0
30 3 -1.2 230.2356212692771 -41.46005440481234 0 0 0 0
31 1 1.2 232.88200772064806 -42.34218322193601 0 0 0 0
32 2 2.4 233.76413653777172 -39.69579677056501 1.9725000000000001 0 0 0
33 3 -1.2 231.9998789035244 -40.57792558768868 1.9725000000000001 0 0 0
34 3 -1.2 234.64626535489538 -41.46005440481234 1.9725000000000001 0 0 0
35 3 -1.2 233.76413653777172 -39.69579677056501 0 0 0 0
36 1 1.2 236.4105229891427 -40.57792558768868 0 0 0 0
37 2 2.4 237.29265180626646 -37.93153913631767 1.9725000000000001 0 0 0
38 3 -1.2 235.52839417201903 -38.81366795344135 1.9725000000000001 0 0 0
39 3 -1.2 237.29265180626646 -37.93153913631767 0 0 0 0
40 2 2.4 210.8287872925564 -46.752827307554355 1.9725000000000001 0 0 0
41 3 -1.2 210.8287872925564 -46.752827307554355 0 0 0 0
42 2 2.4 214.35730256105103 -44.988569673307026 1.9725000000000001 0 0 0
43 3 -1.2 212.5930449268037 -45.870698490430684 1.9725000000000001 0 0 0
44 3 -1.2 215.23943137817474 -46.752827307554355 1.9725000000000001 0 0 0
45 3 -1.2 214.35730256105103 -44.988569673307026 0 0 0 0
46 1 1.2 217.00368901242206 -45.870698490430684 0 0 0 0
47 2 2.4 217.88581782954572 -43.2243120390597 1.9725000000000001 0 0 0
48 3 -1.2 216.1215601952984 -44.106440856183355 1.9725000000000001 0 0 0
49 3 -1.2 218.76794664666937 -44.988569673307026 1.9725000000000001 0 0 0
50 3 -1.2 217.88581782954572 -43.2243120390597 0 0 0 0
51 1 1.2 220.53220428091674 -44.10644085618334 0 0 0 0
52 2 2.4 221.4143330980404 -41.460054404812354 1.9725000000000001 0 0 0
53 3 -1.2 219.6500754637931 -42.34218322193601 1.9725000000000001 0 0 0
54 3 -1.2 222.29646191516406 -43.22431203905968 1.9725000000000001 0 0 0
55 3 -1.2 221.4143330980404 -41.460054404812354 0 0 0 0
56 1 1.2 224.06071954941143 -42.34218322193601 0 0 0 0
57 2 2.4 224.9428483665351 -39.69579677056501 1.9725000000000001 0 0 0
58 3 -1.2 223.17859073228772 -40.57792558768868 1.9725000000000001 0 0 0
59 3 -1.2 225.82497718365875 -41.46005440481234 1.9725000000000001 0 0 0
60 3 -1.2 224.9428483665351 -39.69579677056501 0 0 0 0
61 1 1.2 227.58923481790606 -40.57792558768868 0 0 0 0
62 2 2.4 228.47136363502977 -37.93153913631768 1.9725000000000001 0 0 0
63 3 -1.2 226.7071060007824 -38.81366795344135 1.9725000000000001 0 0 0
64 3 -1.2 229.35349245215343 -39.69579677056501 1.9725000000000001 0 0 0
65 3 -1.2 228.47136363502977 -37.93153913631768 0 0 0 0
66 1 1.2 231.11775008640075 -38.81366795344135 0 0 0 0
67 2 2.4 231.9998789035244 -36.16728150207035 1.9725000000000001 0 0 0
68 3 -1.2 230.2356212692771 -37.049410319194024 1.9725000000000001 0 0 0
69 3 -1.2 232.88200772064806 -37.93153913631768 1.9725000000000001 0 0 0
70 3 -1.2 231.9998789035244 -36.16728150207035 0 0 0 0
71 1 1.2 234.64626535489538 -37.049410319194024 0 0 0 0
72 2 2.4 235.5283941720191 -34.40302386782301 1.9725000000000001 0 0 0
73 3 -1.2 233.76413653777172 -35.285152684946695 1.9725000000000001 0 0 0
74 3 -1.2 236.41052298914275 -36.16728150207034 1.9725000000000001 0 0 0
75 3 -1.2 235.5283941720191 -34.40302386782301 0 0 0 0
76 3 -1.2 237.2926518062664 -33.52089505069935 1.9725000000000001 0 0 0
77 2 2.4 202.0074991213197 -46.752827307554355 1.9725000000000001 0 0 0
78 3 -1.2 202.0074991213197 -46.752827307554355 0 0 0 0
79 2 2.4 205.5360143898144 -44.98856967330701 1.9725000000000001 0 0 0
80 3 -1.2 203.77175675556708 -45.870698490430684 1.9725000000000001 0 0 0
81 3 -1.2 206.4181432069381 -46.75282730755434 1.9725000000000001 0 0 0
82 3 -1.2 205.5360143898144 -44.98856967330701 0 0 0 0
83 1 1.2 208.18240084118543 -45.87069849043067 0 0 0 0
84 2 2.4 209.06452965830908 -43.22431203905968 1.9725000000000001 0 0 0
85 3 -1.2 207.30027202406177 -44.10644085618334 1.9725000000000001 0 0 0
86 3 -1.2 209.94665847543274 -44.98856967330701 1.9725000000000001 0 0 0
87 3 -1.2 209.06452965830908 -43.22431203905968 0 0 0 0
88 1 1.2 211.71091610968006 -44.10644085618334 0 0 0 0
89 2 2.4 212.5930449268037 -41.460054404812354 1.9725000000000001 0 0 0
90 3 -1.2 210.8287872925564 -42.34218322193601 1.9725000000000001 0 0 0
91 3 -1.2 213.47517374392737 -43.22431203905968 1.9725000000000001 0 0 0
92 3 -1.2 212.5930449268037 -41.460054404812354 0 0 0 0
93 1 1.2 215.23943137817474 -42.34218322193601 0 0 0 0
94 2 2.4 216.1215601952984 -39.695796770565025 1.9725000000000001 0 0 0
95 3 -1.2 214.35730256105109 -40.57792558768868 1.9725000000000001 0 0 0
96 3 -1.2 217.00368901242206 -41.460054404812354 1.9725000000000001 0 0 0
97 3 -1.2 216.1215601952984 -39.695796770565025 0 0 0 0
98 1 1.2 218.76794664666943 -40.57792558768867 0 0 0 0
99 2 2.4 219.6500754637931 -37.93153913631768 1.9725000000000001 0 0 0
100 3 -1.2 217.88581782954577 -38.81366795344134 1.9725000000000001 0 0 0
101 3 -1.2 220.53220428091674 -39.69579677056501 1.9725000000000001 0 0 0
102 3 -1.2 219.6500754637931 -37.93153913631768 0 0 0 0
103 1 1.2 222.29646191516406 -38.81366795344134 0 0 0 0
104 2 2.4 223.17859073228777 -36.16728150207034 1.9725000000000001 0 0 0
105 3 -1.2 221.4143330980404 -37.04941031919401 1.9725000000000001 0 0 0
106 3 -1.2 224.06071954941143 -37.93153913631767 1.9725000000000001 0 0 0
107 3 -1.2 223.17859073228777 -36.16728150207034 0 0 0 0
108 1 1.2 225.82497718365875 -37.04941031919401 0 0 0 0
109 2 2.4 226.7071060007824 -34.40302386782301 1.9725000000000001 0 0 0
110 3 -1.2 224.9428483665351 -35.28515268494668 1.9725000000000001 0 0 0
111 3 -1.2 227.58923481790612 -36.16728150207034 1.9725000000000001 0 0 0
112 3 -1.2 226.7071060007824 -34.40302386782301 0 0 0 0
113 1 1.2 229.35349245215343 -35.28515268494668 0 0 0 0
114 2 2.4 230.2356212692771 -32.63876623357568 1.9725000000000001 0 0 0
115 3 -1.2 228.47136363502972 -33.52089505069935 1.9725000000000001 0 0 0
116 3 -1.2 231.11775008640075 -34.40302386782301 1.9725000000000001 0 0 0
117 3 -1.2 230.2356212692771 -32.63876623357568 0 0 0 0
118 1 1.2 232.88200772064806 -33.52089505069935 0 0 0 0
119 2 2.4 233.76413653777178 -30.874508599328337 1.9725000000000001 0 0 0
120 3 -1.2 231.9998789035244 -31.756637416452023 1.9725000000000001 0 0 0
121 3 -1.2 234.64626535489543 -32.638766233575666 1.9725000000000001 0 0 0
122 3 -1.2 233.76413653777178 -30.874508599328337 0 0 0 0
123 1 1.2 236.41052298914275 -31.75663741645201 0 0 0 0
124 2 2.4 237.2926518062664 -29.110250965081008 1.9725000000000001 0 0 0
125 3 -1.2 235.5283941720191 -29.99237978220468 1.9725000000000001 0 0 0
126 3 -1.2 237.2926518062664 -29.110250965081008 0 0 0 0
127 2 2.4 193.18621095008308 -46.752827307554355 1.9725000000000001 0 0 0
128 3 -1.2 193.18621095008308 -46.752827307554355 0 0 0 0
129 2 2.4 196.71472621857777 -44.988569673307026 1.9725000000000001 0 0 0
130 3 -1.2 194.9504685843304 -45.8706984904307 1.9725000000000001 0 0 0
131 3 -1.2 197.59685503570142 -46.752827307554355 1.9725000000000001 0 0 0
132 3 -1.2 196.71472621857777 -44.988569673307026 0 0 0 0
133 1 1.2 199.36111266994874 -45.8706984904307 0 0 0 0
134 2 2.4 200.2432414870724 -43.2243120390597 1.9725000000000001 0 0 0
135 3 -1.2 198.47898385282508 -44.10644085618337 1.9725000000000001 0 0 0
136 3 -1.2 201.12537030419605 -44.988569673307026 1.9725000000000001 0 0 0
137 3 -1.2 200.2432414870724 -43.2243120390597 0 0 0 0
138 1 1.2 202.88962793844337 -44.106440856183355 0 0 0 0
139 2 2.4 203.77175675556708 -41.460054404812354 1.9725000000000001 0 0 0
140 3 -1.2 202.0074991213197 -42.342183221936025 1.9725000000000001 0 0 0
141 3 -1.2 204.65388557269074 -43.22431203905968 1.9725000000000001 0 0 0
142 3 -1.2 203.77175675556708 -41.460054404812354 0 0 0 0
143 1 1.2 206.4181432069381 -42.34218322193601 0 0 0 0
144 2 2.4 207.30027202406177 -39.695796770565025 1.9725000000000001 0 0 0
145 3 -1.2 205.53601438981445 -40.57792558768868 1.9725000000000001 0 0 0
146 3 -1.2 208.18240084118543 -41.460054404812354 1.9725000000000001 0 0 0
147 3 -1.2 207.30027202406177 -39.695796770565025 0 0 0 0
148 1 1.2 209.94665847543274 -40.57792558768868 0 0 0 0
149 2 2.4 210.8287872925564 -37.931539136317696 1.9725000000000001 0 0 0
150 3 -1.2 209.06452965830908 -38.81366795344135 1.9725000000000001 0 0 0
151 3 -1.2 211.71091610968006 -39.695796770565025 1.9725000000000001 0 0 0
152 3 -1.2 210.8287872925564 -37.931539136317696 0 0 0 0
153 1 1.2 213.47517374392737 -38.81366795344135 0 0 0 0
154 2 2.4 214.35730256105103 -36.16728150207037 1.9725000000000001 0 0 0
155 3 -1.2 212.5930449268037 -37.049410319194024 1.9725000000000001 0 0 0
156 3 -1.2 215.2394313781747 -37.931539136317696 1.9725000000000001 0 0 0
157 3 -1.2 214.35730256105103 -36.16728150207037 0 0 0 0
158 1 1.2 217.00368901242211 -37.04941031919401 0 0 0 0
159 2 2.4 217.88581782954577 -34.40302386782302 1.9725000000000001 0 0 0
160 3 -1.2 216.12156019529846 -35.28515268494668 1.9725000000000001 0 0 0
161 3 -1.2 218.76794664666943 -36.16728150207035 1.9725000000000001 0 0 0
162 3 -1.2 217.88581782954577 -34.40302386782302 0 0 0 0
163 1 1.2 220.53220428091674 -35.28515268494668 0 0 0 0
164 2 2.4 221.4143330980404 -32.63876623357568 1.9725000000000001 0 0 0
165 3 -1.2 219.6500754637931 -33.52089505069935 1.9725000000000001 0 0 0
166 3 -1.2 222.29646191516406 -34.40302386782301 1.9725000000000001 0 0 0
167 3 -1.2 221.4143330980404 -32.63876623357568 0 0 0 0
168 1 1.2 224.06071954941137 -33.52089505069935 0 0 0 0
169 2 2.4 224.9428483665351 -30.87450859932835 1.9725000000000001 0 0 0
170 3 -1.2 223.17859073228772 -31.756637416452023 1.9725000000000001 0 0 0
171 3 -1.2 225.82497718365875 -32.63876623357568 1.9725000000000001 0 0 0
172 3 -1.2 224.9428483665351 -30.87450859932835 0 0 0 0
173 1 1.2 227.58923481790606 -31.756637416452023 0 0 0 0
174 2 2.4 228.47136363502977 -29.110250965081022 1.9725000000000001 0 0 0
175 3 -1.2 226.7071060007824 -29.992379782204694 1.9725000000000001 0 0 0
176 3 -1.2 229.35349245215343 -30.87450859932835 1.9725000000000001 0 0 0
177 3 -1.2 228.47136363502977 -29.110250965081022 0 0 0 0
178 1 1.2 231.11775008640075 -29.992379782204694 0 0 0 0
179 2 2.4 231.9998789035244 -27.34599333083368 1.9725000000000001 0 0 0
180 3 -1.2 230.2356212692771 -28.228122147957365 1.9725000000000001 0 0 0
181 3 -1.2 232.88200772064806 -29.110250965081008 1.9725000000000001 0 0 0
182 3 -1.2 231.9998789035244 -27.34599333083368 0 0 0 0
183 1 1.2 234.64626535489538 -28.22812214795735 0 0 0 0
184 2 2.4 235.5283941720191 -25.58173569658635 1.9725000000000001 0 0 0
185 3 -1.2 233.76413653777172 -26.46386451371002 1.9725000000000001 0 0 0
186 3 -1.2 236.41052298914275 -27.34599333083368 1.9725000000000001 0 0 0
187 3 -1.2 235.5283941720191 -25.58173569658635 0 0 0 0
188 3 -1.2 237.29265180626646 -24.699606879462678 1.9725000000000001 0 0 0
189 2 2.4 184.3649227788464 -46.752827307554355 1.9725000000000001 0 0 0
190 3 -1.2 184.3649227788464 -46.752827307554355 0 0 0 0
191 2 2.4 187.89343804734108 -44.98856967330701 1.9725000000000001 0 0 0
192 3 -1.2 186.12918041309376 -45.870698490430684 1.9725000000000001 0 0 0
193 3 -1.2 188.77556686446474 -46.75282730755434 1.9725000000000001 0 0 0
194 3 -1.2 187.89343804734108 -44.98856967330701 0 0 0 0
195 1 1.2 190.53982449871205 -45.870698490430684 0 0 0 0
196 2 2.4 191.4219533158357 -43.22431203905968 1.9725000000000001 0 0 0
197 3 -1.2 189.6576956815884 -44.106440856183355 1.9725000000000001 0 0 0
198 3 -1.2 192.30408213295942 -44.98856967330701 1.9725000000000001 0 0 0
199 3 -1.2 191.4219533158357 -43.22431203905968 0 0 0 0
200 1 1.2 194.06833976720674 -44.106440856183355 0 0 0 0
201 2 2.4 194.9504685843304 -41.460054404812354 1.9725000000000001 0 0 0
202 3 -1.2 193.18621095008302 -42.342183221936025 1.9725000000000001 0 0 0
203 3 -1.2 195.83259740145405 -43.22431203905968 1.9725000000000001 0 0 0
204 3 -1.2 194.9504685843304 -41.460054404812354 0 0 0 0
205 1 1.2 197.59685503570137 -42.342183221936025 0 0 0 0
206 2 2.4 198.47898385282508 -39.695796770565025 1.9725000000000001 0 0 0
207 3 -1.2 196.7147262185777 -40.577925587688696 1.9725000000000001 0 0 0
208 3 -1.2 199.36111266994874 -41.460054404812354 1.9725000000000001 0 0 0
209 3 -1.2 198.47898385282508 -39.695796770565025 0 0 0 0
210 1 1.2 201.12537030419605 -40.57792558768868 0 0 0 0
211 2 2.4 202.0074991213197 -37.93153913631768 1.9725000000000001 0 0 0
212 3 -1.2 200.2432414870724 -38.81366795344135 1.9725000000000001 0 0 0
213 3 -1.2 202.88962793844343 -39.69579677056501 1.9725000000000001 0 0 0
214 3 -1.2 202.0074991213197 -37.93153913631768 0 0 0 0
215 1 1.2 204.65388557269074 -38.81366795344134 0 0 0 0
216 2 2.4 205.5360143898144 -36.16728150207035 1.9725000000000001 0 0 0
217 3 -1.2 203.77175675556708 -37.04941031919401 1.9725000000000001 0 0 0
218 3 -1.2 206.41814320693805 -37.93153913631768 1.9725000000000001 0 0 0
219 3 -1.2 205.5360143898144 -36.16728150207035 0 0 0 0
220 1 1.2 208.18240084118543 -37.04941031919401 0 0 0 0
221 2 2.4 209.06452965830908 -34.40302386782302 1.9725000000000001 0 0 0
222 3 -1.2 207.30027202406177 -35.28515268494668 1.9725000000000001 0 0 0
223 3 -1.2 209.94665847543274 -36.16728150207035 1.9725000000000001 0 0 0
224 3 -1.2 209.06452965830908 -34.40302386782302 0 0 0 0
225 1 1.2 211.71091610968006 -35.28515268494668 0 0 0 0
226 2 2.4 212.5930449268037 -32.638766233575694 1.9725000000000001 0 0 0
227 3 -1.2 210.8287872925564 -33.52089505069935 1.9725000000000001 0 0 0
228 3 -1.2 213.47517374392737 -34.40302386782302 1.9725000000000001 0 0 0
229 3 -1.2 212.5930449268037 -32.638766233575694 0 0 0 0
230 1 1.2 215.23943137817474 -33.52089505069934 0 0 0 0
231 2 2.4 216.1215601952984 -30.87450859932835 1.9725000000000001 0 0 0
232 3 -1.2 214.35730256105109 -31.75663741645201 1.9725000000000001 0 0 0
233 3 -1.2 217.00368901242206 -32.63876623357568 1.9725000000000001 0 0 0
234 3 -1.2 216.1215601952984 -30.87450859932835 0 0 0 0
235 1 1.2 218.76794664666943 -31.75663741645201 0 0 0 0
236 2 2.4 219.6500754637931 -29.110250965081008 1.9725000000000001 0 0 0
237 3 -1.2 217.88581782954577 -29.99237978220468 1.9725000000000001 0 0 0
238 3 -1.2 220.53220428091674 -30.874508599328337 1.9725000000000001 0 0 0
239 3 -1.2 219.6500754637931 -29.110250965081008 0 0 0 0
240 1 1.2 222.29646191516406 -29.99237978220468 0 0 0 0
241 2 2.4 223.17859073228772 -27.34599333083368 1.9725000000000001 0 0 0
242 3 -1.2 221.4143330980404 -28.22812214795735 1.9725000000000001 0 0 0
243 3 -1.2 224.06071954941143 -29.110250965081008 1.9725000000000001 0 0 0
244 3 -1.2 223.17859073228772 -27.34599333083368 0 0 0 0
245 1 1.2 225.82497718365875 -28.22812214795735 0 0 0 0
246 2 2.4 226.7071060007824 -25.58173569658635 1.9725000000000001 0 0 0
247 3 -1.2 224.94284836653503 -26.46386451371002 1.9725000000000001 0 0 0
248 3 -1.2 227.58923481790606 -27.34599333083368 1.9725000000000001 0 0 0
249 3 -1.2 226.7071060007824 -25.58173569658635 0 0 0 0
250 1 1.2 229.35349245215338 -26.46386451371002 0 0 0 0
251 2 2.4 230.2356212692771 -23.817478062339006 1.9725000000000001 0 0 0
252 3 -1.2 228.47136363502972 -24.699606879462692 1.9725000000000001 0 0 0
253 3 -1.2 231.11775008640075 -25.581735696586335 1.9725000000000001 0 0 0
254 3 -1.2 230.2356212692771 -23.817478062339006 0 0 0 0
255 1 1.2 232.88200772064806 -24.699606879462678 0 0 0 0
256 2 2.4 233.76413653777172 -22.053220428091677 1.9725000000000001 0 0 0
257 3 -1.2 231.9998789035244 -22.93534924521535 1.9725000000000001 0 0 0
258 3 -1.2 234.64626535489543 -23.817478062339006 1.9725000000000001 0 0 0
259 3 -1.2 233.76413653777172 -22.053220428091677 0 0 0 0
260 1 1.2 236.41052298914275 -22.935349245215335 0 0 0 0
261 2 2.4 237.2926518062664 -20.288962793844348 1.9725000000000001 0 0 0
262 3 -1.2 235.5283941720191 -21.171091610968006 1.9725000000000001 0 0 0
263 3 -1.2 237.2926518062664 -20.288962793844348 0 0 0 0
264 2 2.4 175.54363460760976 -46.75282730755435 1.9725000000000001 0 0 0
265 3 -1.2 175.54363460760976 -46.75282730755435 0 0 0 0
266 2 2.4 179.0721498761044 -44.98856967330702 1.9725000000000001 0 0 0
267 3 -1.2 177.30789224185708 -45.870698490430684 1.9725000000000001 0 0 0
268 3 -1.2 179.95427869322805 -46.75282730755436 1.9725000000000001 0 0 0
269 3 -1.2 179.0721498761044 -44.98856967330702 0 0 0 0
270 1 1.2 181.71853632747536 -45.8706984904307 0 0 0 0
271 2 2.4 182.60066514459908 -43.22431203905968 1.9725000000000001 0 0 0
272 3 -1.2 180.8364075103517 -44.106440856183355 1.9725000000000001 0 0 0
273 3 -1.2 183.48279396172273 -44.988569673307026 1.9725000000000001 0 0 0
274 3 -1.2 182.60066514459908 -43.22431203905968 0 0 0 0
275 1 1.2 185.2470515959701 -44.106440856183355 0 0 0 0
276 2 2.4 186.12918041309376 -41.46005440481234 1.9725000000000001 0 0 0
277 3 -1.2 184.3649227788464 -42.34218322193601 1.9725000000000001 0 0 0
278 3 -1.2 187.01130923021742 -43.22431203905968 1.9725000000000001 0 0 0
279 3 -1.2 186.12918041309376 -41.46005440481234 0 0 0 0
280 1 1.2 188.77556686446474 -42.342183221936025 0 0 0 0
281 2 2.4 189.6576956815884 -39.69579677056501 1.9725000000000001 0 0 0
282 3 -1.2 187.89343804734108 -40.57792558768868 1.9725000000000001 0 0 0
283 3 -1.2 190.53982449871205 -41.460054404812354 1.9725000000000001 0 0 0
284 3 -1.2 189.6576956815884 -39.69579677056501 0 0 0 0
285 1 1.2 192.30408213295937 -40.577925587688696 0 0 0 0
286 2 2.4 193.18621095008308 -37.93153913631768 1.9725000000000001 0 0 0
287 3 -1.2 191.4219533158357 -38.81366795344135 1.9725000000000001 0 0 0
288 3 -1.2 194.06833976720674 -39.695796770565025 1.9725000000000001 0 0 0
289 3 -1.2 193.18621095008308 -37.93153913631768 0 0 0 0
290 1 1.2 195.83259740145405 -38.81366795344137 0 0 0 0
291 2 2.4 196.7147262185777 -36.16728150207035 1.9725000000000001 0 0 0
292 3 -1.2 194.9504685843304 -37.049410319194024 1.9725000000000001 0 0 0
293 3 -1.2 197.59685503570142 -37.931539136317696 1.9725000000000001 0 0 0
294 3 -1.2 196.7147262185777 -36.16728150207035 0 0 0 0
295 1 1.2 199.36111266994874 -37.049410319194024 0 0 0 0
296 2 2.4 200.2432414870724 -34.40302386782301 1.9725000000000001 0 0 0
297 3 -1.2 198.47898385282508 -35.28515268494668 1.9725000000000001 0 0 0
298 3 -1.2 201.12537030419605 -36.16728150207035 1.9725000000000001 0 0 0
299 3 -1.2 200.2432414870724 -34.40302386782301 0 0 0 0
300 1 1.2 202.88962793844343 -35.28515268494668 0 0 0 0
301 2 2.4 203.77175675556708 -32.63876623357568 1.9725000000000001 0 0 0
302 3 -1.2 202.00749912131977 -33.52089505069934 1.9725000000000001 0 0 0
303 3 -1.2 204.65388557269074 -34.40302386782302 1.9725000000000001 0 0 0
304 3 -1.2 203.77175675556708 -32.63876623357568 0 0 0 0
305 1 1.2 206.4181432069381 -33.52089505069935 0 0 0 0
306 2 2.4 207.3002720240617 -30.87450859932835 1.9725000000000001 0 0 0
307 3 -1.2 205.5360143898144 -31.75663741645201 1.9725000000000001 0 0 0
308 3 -1.2 208.18240084118543 -32.638766233575694 1.9725000000000001 0 0 0
309 3 -1.2 207.3002720240617 -30.87450859932835 0 0 0 0
310 1 1.2 209.94665847543274 -31.756637416452023 0 0 0 0
311 2 2.4 210.8287872925564 -29.110250965081022 1.9725000000000001 0 0 0
312 3 -1.2 209.06452965830908 -29.99237978220468 1.9725000000000001 0 0 0
313 3 -1.2 211.71091610968006 -30.874508599328365 1.9725000000000001 0 0 0
314 3 -1.2 210.8287872925564 -29.110250965081022 0 0 0 0
315 1 1.2 213.47517374392743 -29.99237978220468 0 0 0 0
316 2 2.4 214.35730256105109 -27.34599333083368 1.9725000000000001 0 0 0
317 3 -1.2 212.59304492680377 -28.228122147957336 1.9725000000000001 0 0 0
318 3 -1.2 215.23943137817474 -29.110250965081022 1.9725000000000001 0 0 0
319 3 -1.2 214.35730256105109 -27.34599333083368 0 0 0 0
320 1 1.2 217.00368901242211 -28.22812214795735 0 0 0 0
321 2 2.4 217.88581782954577 -25.581735696586335 1.9725000000000001 0 0 0
322 3 -1.2 216.1215601952984 -26.463864513710007 1.9725000000000001 0 0 0
323 3 -1.2 218.76794664666943 -27.34599333083368 1.9725000000000001 0 0 0
324 3 -1.2 217.88581782954577 -25.581735696586335 0 0 0 0
325 1 1.2 220.53220428091674 -26.46386451371002 0 0 0 0
326 2 2.4 221.4143330980404 -23.817478062339006 1.9725000000000001 0 0 0
327 3 -1.2 219.6500754637931 -24.699606879462678 1.9725000000000001 0 0 0
328 3 -1.2 222.29646191516406 -25.58173569658635 1.9725000000000001 0 0 0
329 3 -1.2 221.4143330980404 -23.817478062339006 0 0 0 0
330 1 1.2 224.06071954941137 -24.699606879462692 0 0 0 0
331 2 2.4 224.9428483665351 -22.053220428091677 1.9725000000000001 0 0 0
332 3 -1.2 223.17859073228772 -22.93534924521535 1.9725000000000001 0 0 0
333 3 -1.2 225.82497718365875 -23.81747806233902 1.9725000000000001 0 0 0
334 3 -1.2 224.9428483665351 -22.053220428091677 0 0 0 0
335 1 1.2 227.58923481790606 -22.935349245215363 0 0 0 0
336 2 2.4 228.47136363502977 -20.288962793844334 1.9725000000000001 0 0 0
337 3 -1.2 226.7071060007824 -21.17109161096802 1.9725000000000001 0 0 0
338 3 -1.2 229.35349245215343 -22.053220428091677 1.9725000000000001 0 0 0
339 3 -1.2 228.47136363502977 -20.288962793844334 0 0 0 0
340 1 1.2 231.11775008640075 -21.17109161096802 0 0 0 0
341 2 2.4 231.9998789035244 -18.524705159597005 1.9725000000000001 0 0 0
342 3 -1.2 230.2356212692771 -19.406833976720677 1.9725000000000001 0 0 0
343 3 -1.2 232.88200772064806 -20.288962793844348 1.9725000000000001 0 0 0
344 3 -1.2 231.9998789035244 -18.524705159597005 0 0 0 0
345 1 1.2 234.64626535489543 -19.406833976720677 0 0 0 0
346 2 2.4 235.5283941720191 -16.760447525349676 1.9725000000000001 0 0 0
347 3 -1.2 233.76413653777178 -17.642576342473333 1.9725000000000001 0 0 0
348 3 -1.2 236.41052298914275 -18.52470515959702 1.9725000000000001 0 0 0
349 3 -1.2 235.5283941720191 -16.760447525349676 0 0 0 0
350 3 -1.2 237.2926518062664 -15.878318708226004 1.9725000000000001 0 0 0
351 2 2.4 166.72234643637307 -46.75282730755434 1.9725000000000001 0 0 0
352 3 -1.2 166.72234643637307 -46.75282730755434 0 0 0 0
353 2 2.4 170.2508617048677 -44.98856967330701 1.9725000000000001 0 0 0
354 3 -1.2 168.4866040706204 -45.87069849043068 1.9725000000000001 0 0 0
355 3 -1.2 171.13299052199136 -46.752827307554355 1.9725000000000001 0 0 0
356 3 -1.2 170.2508617048677 -44.98856967330701 0 0 0 0
357 1 1.2 172.89724815623873 -45.87069849043069 0 0 0 0
358 2 2.4 173.7793769733624 -43.224312039059676 1.9725000000000001 0 0 0
359 3 -1.2 172.01511933911502 -44.10644085618335 1.9725000000000001 0 0 0
360 3 -1.2 174.6615057904861 -44.98856967330702 1.9725000000000001 0 0 0
361 3 -1.2 173.7793769733624 -43.224312039059676 0 0 0 0
362 1 1.2 176.42576342473342 -44.106440856183355 0 0 0 0
363 2 2.4 177.30789224185708 -41.46005440481235 1.9725000000000001 0 0 0
364 3 -1.2 175.54363460760976 -42.34218322193601 1.9725000000000001 0 0 0
365 3 -1.2 178.19002105898073 -43.22431203905969 1.9725000000000001 0 0 0
366 3 -1.2 177.30789224185708 -41.46005440481235 0 0 0 0
367 1 1.2 179.95427869322805 -42.342183221936025 0 0 0 0
368 2 2.4 180.8364075103517 -39.69579677056501 1.9725000000000001 0 0 0
369 3 -1.2 179.0721498761044 -40.57792558768868 1.9725000000000001 0 0 0
370 3 -1.2 181.71853632747536 -41.460054404812354 1.9725000000000001 0 0 0
371 3 -1.2 180.8364075103517 -39.69579677056501 0 0 0 0
372 1 1.2 183.48279396172273 -40.57792558768868 0 0 0 0
373 2 2.4 184.36492277884645 -37.93153913631767 1.9725000000000001 0 0 0
374 3 -1.2 182.60066514459908 -38.81366795344134 1.9725000000000001 0 0 0
375 3 -1.2 185.2470515959701 -39.69579677056501 1.9725000000000001 0 0 0
376 3 -1.2 184.36492277884645 -37.93153913631767 0 0 0 0
377 1 1.2 187.01130923021742 -38.81366795344135 0 0 0 0
378 2 2.4 187.89343804734108 -36.16728150207034 1.9725000000000001 0 0 0
379 3 -1.2 186.12918041309376 -37.04941031919401 1.9725000000000001 0 0 0
380 3 -1.2 188.77556686446474 -37.93153913631768 1.9725000000000001 0 0 0
381 3 -1.2 187.89343804734108 -36.16728150207034 0 0 0 0
382 1 1.2 190.53982449871205 -37.049410319194024 0 0 0 0
383 2 2.4 191.4219533158357 -34.40302386782301 1.9725000000000001 0 0 0
384 3 -1.2 189.6576956815884 -35.28515268494668 1.9725000000000001 0 0 0
385 3 -1.2 192.30408213295937 -36.16728150207035 1.9725000000000001 0 0 0
386 3 -1.2 191.4219533158357 -34.40302386782301 0 0 0 0
387 1 1.2 194.06833976720668 -35.285152684946695 0 0 0 0
388 2 2.4 194.9504685843304 -32.63876623357568 1.9725000000000001 0 0 0
389 3 -1.2 193.18621095008302 -33.52089505069935 1.9725000000000001 0 0 0
390 3 -1.2 195.83259740145405 -34.40302386782302 1.9725000000000001 0 0 0
391 3 -1.2 194.9504685843304 -32.63876623357568 0 0 0 0
392 1 1.2 197.59685503570142 -33.52089505069935 0 0 0 0
393 2 2.4 198.47898385282508 -30.874508599328337 1.9725000000000001 0 0 0
394 3 -1.2 196.71472621857777 -31.75663741645201 1.9725000000000001 0 0 0
395 3 -1.2 199.36111266994874 -32.63876623357568 1.9725000000000001 0 0 0
396 3 -1.2 198.47898385282508 -30.874508599328337 0 0 0 0
397 1 1.2 201.12537030419605 -31.75663741645201 0 0 0 0
398 2 2.4 202.0074991213197 -29.110250965081008 1.9725000000000001 0 0 0
399 3 -1.2 200.2432414870724 -29.992379782204665 1.9725000000000001 0 0 0
400 3 -1.2 202.88962793844337 -30.87450859932835 1.9725000000000001 0 0 0
401 3 -1.2 202.0074991213197 -29.110250965081008 0 0 0 0
402 1 1.2 204.65388557269074 -29.99237978220468 0 0 0 0
403 2 2.4 205.5360143898144 -27.34599333083368 1.9725000000000001 0 0 0
404 3 -1.2 203.77175675556708 -28.228122147957336 1.9725000000000001 0 0 0
405 3 -1.2 206.41814320693805 -29.110250965081022 1.9725000000000001 0 0 0
406 3 -1.2 205.5360143898144 -27.34599333083368 0 0 0 0
407 1 1.2 208.18240084118543 -28.22812214795735 0 0 0 0
408 2 2.4 209.06452965830908 -25.58173569658635 1.9725000000000001 0 0 0
409 3 -1.2 207.30027202406177 -26.463864513710007 1.9725000000000001 0 0 0
410 3 -1.2 209.94665847543274 -27.345993330833693 1.9725000000000001 0 0 0
411 3 -1.2 209.06452965830908 -25.58173569658635 0 0 0 0
412 1 1.2 211.71091610968006 -26.463864513710007 0 0 0 0
413 2 2.4 212.5930449268037 -23.817478062339006 1.9725000000000001 0 0 0
414 3 -1.2 210.8287872925564 -24.699606879462664 1.9725000000000001 0 0 0
415 3 -1.2 213.47517374392737 -25.58173569658635 1.9725000000000001 0 0 0
416 3 -1.2 212.5930449268037 -23.817478062339006 0 0 0 0
417 1 1.2 215.23943137817474 -24.699606879462678 0 0 0 0
418 2 2.4 216.12156019529846 -22.053220428091663 1.9725000000000001 0 0 0
419 3 -1.2 214.35730256105109 -22.935349245215335 1.9725000000000001 0 0 0
420 3 -1.2 217.00368901242211 -23.817478062339006 1.9725000000000001 0 0 0
421 3 -1.2 216.12156019529846 -22.053220428091663 0 0 0 0
422 1 1.2 218.76794664666943 -22.93534924521535 0 0 0 0
423 2 2.4 219.6500754637931 -20.288962793844334 1.9725000000000001 0 0 0
424 3 -1.2 217.88581782954577 -21.171091610968006 1.9725000000000001 0 0 0
425 3 -1.2 220.53220428091674 -22.053220428091677 1.9725000000000001 0 0 0
426 3 -1.2 219.6500754637931 -20.288962793844334 0 0 0 0
427 1 1.2 222.29646191516406 -21.17109161096802 0 0 0 0
428 2 2.4 223.17859073228772 -18.524705159597005 1.9725000000000001 0 0 0
429 3 -1.2 221.4143330980404 -19.406833976720677 1.9725000000000001 0 0 0
430 3 -1.2 224.06071954941137 -20.288962793844348 1.9725000000000001 0 0 0
431 3 -1.2 223.17859073228772 -18.524705159597005 0 0 0 0
432 1 1.2 225.8249771836587 -19.40683397672069 0 0 0 0
433 2 2.4 226.70710600078246 -16.76044752534966 1.9725000000000001 0 0 0
434 3 -1.2 224.94284836653503 -17.642576342473347 1.9725000000000001 0 0 0
435 3 -1.2 227.58923481790612 -18.524705159597005 1.9725000000000001 0 0 0
436 3 -1.2 226.70710600078246 -16.76044752534966 0 0 0 0
437 1 1.2 229.35349245215343 -17.642576342473347 0 0 0 0
438 2 2.4 230.2356212692771 -14.996189891102333 1.9725000000000001 0 0 0
439 3 -1.2 228.47136363502977 -15.878318708226004 1.9725000000000001 0 0 0
440 3 -1.2 231.11775008640075 -16.760447525349676 1.9725000000000001 0 0 0
441 3 -1.2 230.2356212692771 -14.996189891102333 0 0 0 0
442 1 1.2 232.88200772064806 -15.878318708226004 0 0 0 0
443 2 2.4 233.76413653777172 -13.231932256855004 1.9725000000000001 0 0 0
444 3 -1.2 231.9998789035244 -14.114061073978661 1.9725000000000001 0 0 0
445 3 -1.2 234.64626535489538 -14.996189891102347 1.9725000000000001 0 0 0
446 3 -1.2 233.76413653777172 -13.231932256855004 0 0 0 0