LAMMPS data file via write_data, version 19 Nov 2024, timestep = 0, units =.1 metal
              
14778 atoms             
3 atom types            
              
0 26.9381450312993 xlo xhi           
-142.512271840007 142.512271840007 ylo yhi           
0 23.67 zlo zhi           
              
Masses              
              
1 87.62             
2 47.867             
3 15.999             
              
Atoms # charge            
              
1 2 2.4 20.28896279384434 -70.76660363690698 1.9724999999999968 0 0 0      
2 3 -1.2 20.28896279384434 -70.76660363690698 0.0 0 0 0      
3 2 2.4 23.817478062339006 -69.00234600265969 1.9724999999999968 0 0 0      
4 3 -1.2 22.05322042809168 -69.88447481978332 1.9724999999999968 0 0 0      
5 3 -1.2 24.69960687946267 -70.76660363690698 1.9724999999999968 0 0 0      
6 3 -1.2 23.817478062339006 -69.00234600265969 0.0 0 0 0      
7 1 1.2 26.46386451371001 -69.88447481978332 0.0 0 0 0      
8 3 -1.2 25.58173569658635 -68.12021718553598 1.9724999999999968 0 0 0      
9 2 2.4 11.467674622607667 -70.76660363690698 1.9724999999999968 0 0 0      
10 3 -1.2 11.467674622607667 -70.76660363690698 0.0 0 0 0      
11 2 2.4 14.99618989110234 -69.00234600265964 1.9724999999999968 0 0 0      
12 3 -1.2 13.231932256855004 -69.88447481978332 1.9724999999999968 0 0 0      
13 3 -1.2 15.878318708226004 -70.76660363690698 1.9724999999999968 0 0 0      
14 3 -1.2 14.99618989110234 -69.00234600265964 0.0 0 0 0      
15 1 1.2 17.64257634247334 -69.88447481978332 0.0 0 0 0      
16 2 2.4 18.524705159597005 -67.23808836841232 1.9724999999999968 0 0 0      
17 3 -1.2 16.760447525349676 -68.12021718553598 1.9724999999999968 0 0 0      
18 3 -1.2 19.40683397672067 -69.00234600265964 1.9724999999999968 0 0 0      
19 3 -1.2 18.524705159597005 -67.23808836841232 0.0 0 0 0      
20 1 1.2 21.17109161096801 -68.12021718553598 0.0 0 0 0      
21 2 2.4 22.05322042809167 -65.47383073416498 1.9724999999999968 0 0 0      
22 3 -1.2 20.28896279384434 -66.35595955128863 1.9724999999999968 0 0 0      
23 3 -1.2 22.93534924521533 -67.23808836841232 1.9724999999999968 0 0 0      
24 3 -1.2 22.05322042809167 -65.47383073416498 0.0 0 0 0      
25 1 1.2 24.69960687946268 -66.35595955128863 0.0 0 0 0      
26 2 2.4 25.581735696586342 -63.709573099917634 1.9724999999999968 0 0 0      
27 3 -1.2 23.817478062339013 -64.59170191704132 1.9724999999999968 0 0 0      
28 3 -1.2 26.463864513710007 -65.47383073416498 1.9724999999999968 0 0 0      
29 3 -1.2 25.581735696586342 -63.709573099917634 0.0 0 0 0      
30 2 2.4 2.6463864513710007 -70.76660363690698 1.9724999999999968 0 0 0      
31 3 -1.2 2.6463864513710007 -70.76660363690698 0.0 0 0 0      
32 2 2.4 6.174901719865673 -69.00234600265969 1.9724999999999968 0 0 0      
33 3 -1.2 4.41064408561833 -69.88447481978332 1.9724999999999968 0 0 0      
34 3 -1.2 7.0570305369893305 -70.76660363690698 1.9724999999999968 0 0 0      
35 3 -1.2 6.174901719865673 -69.00234600265969 0.0 0 0 0      
36 1 1.2 8.821288171236674 -69.88447481978332 0.0 0 0 0      
37 2 2.4 9.703416988360338 -67.23808836841232 1.9724999999999968 0 0 0      
38 3 -1.2 7.939159354113009 -68.12021718553598 1.9724999999999968 0 0 0      
39 3 -1.2 10.585545805484005 -69.00234600265969 1.9724999999999968 0 0 0      
40 3 -1.2 9.703416988360338 -67.23808836841232 0.0 0 0 0      
41 1 1.2 12.34980343973134 -68.12021718553598 0.0 0 0 0      
42 2 2.4 13.23193225685501 -65.47383073416498 1.9724999999999968 0 0 0      
43 3 -1.2 11.467674622607674 -66.35595955128866 1.9724999999999968 0 0 0      
44 3 -1.2 14.114061073978675 -67.23808836841232 1.9724999999999968 0 0 0      
45 3 -1.2 13.23193225685501 -65.47383073416498 0.0 0 0 0      
46 1 1.2 15.878318708226011 -66.35595955128863 0.0 0 0 0      
47 2 2.4 16.760447525349676 -63.70957309991766 1.9724999999999968 0 0 0      
48 3 -1.2 14.996189891102349 -64.59170191704132 1.9724999999999968 0 0 0      
49 3 -1.2 17.64257634247334 -65.47383073416498 1.9724999999999968 0 0 0      
50 3 -1.2 16.760447525349676 -63.70957309991766 0.0 0 0 0      
51 1 1.2 19.40683397672068 -64.59170191704132 0.0 0 0 0      
52 2 2.4 20.28896279384434 -61.94531546567032 1.9724999999999968 0 0 0      
53 3 -1.2 18.52470515959701 -62.82744428279398 1.9724999999999968 0 0 0      
54 3 -1.2 21.17109161096801 -63.70957309991766 1.9724999999999968 0 0 0      
55 3 -1.2 20.28896279384434 -61.94531546567032 0.0 0 0 0      
56 1 1.2 22.93534924521535 -62.82744428279398 0.0 0 0 0      
57 2 2.4 23.817478062339013 -60.181057831422976 1.9724999999999968 0 0 0      
58 3 -1.2 22.053220428091684 -61.06318664854666 1.9724999999999968 0 0 0      
59 3 -1.2 24.69960687946268 -61.94531546567032 1.9724999999999968 0 0 0      
60 3 -1.2 23.817478062339013 -60.181057831422976 0.0 0 0 0      
61 1 1.2 26.46386451371001 -61.06318664854663 0.0 0 0 0      
62 3 -1.2 25.58173569658635 -59.29892901429932 1.9724999999999968 0 0 0      
63 1 1.2 0.0 -69.88447481978332 0.0 0 0 0      
64 2 2.4 0.8821288171236716 -67.23808836841232 1.9724999999999968 0 0 0      
65 3 -1.2 1.764257634247329 -69.00234600265969 1.9724999999999968 0 0 0      
66 3 -1.2 0.8821288171236716 -67.23808836841232 0.0 0 0 0      
67 1 1.2 3.5285152684946723 -68.12021718553598 0.0 0 0 0      
68 2 2.4 4.41064408561833 -65.47383073416498 1.9724999999999968 0 0 0      
69 3 -1.2 2.6463864513710007 -66.35595955128866 1.9724999999999968 0 0 0      
70 3 -1.2 5.292772902742001 -67.23808836841232 1.9724999999999968 0 0 0      
71 3 -1.2 4.41064408561833 -65.47383073416498 0.0 0 0 0      
72 1 1.2 7.0570305369893305 -66.35595955128863 0.0 0 0 0      
73 2 2.4 7.939159354113002 -63.70957309991766 1.9724999999999968 0 0 0      
74 3 -1.2 6.174901719865673 -64.59170191704132 1.9724999999999968 0 0 0      
75 3 -1.2 8.821288171236667 -65.47383073416498 1.9724999999999968 0 0 0      
76 3 -1.2 7.939159354113002 -63.70957309991766 0.0 0 0 0      
77 1 1.2 10.585545805484005 -64.59170191704132 0.0 0 0 0      
78 2 2.4 11.467674622607674 -61.94531546567032 1.9724999999999968 0 0 0      
79 3 -1.2 9.703416988360338 -62.82744428279398 1.9724999999999968 0 0 0      
80 3 -1.2 12.34980343973134 -63.709573099917634 1.9724999999999968 0 0 0      
81 3 -1.2 11.467674622607674 -61.94531546567032 0.0 0 0 0      
82 1 1.2 14.114061073978675 -62.82744428279398 0.0 0 0 0      
83 2 2.4 14.99618989110234 -60.181057831422976 1.9724999999999968 0 0 0      
84 3 -1.2 13.23193225685501 -61.06318664854663 1.9724999999999968 0 0 0      
85 3 -1.2 15.878318708226004 -61.94531546567032 1.9724999999999968 0 0 0      
86 3 -1.2 14.99618989110234 -60.181057831422976 0.0 0 0 0      
87 1 1.2 17.64257634247334 -61.06318664854663 0.0 0 0 0      
88 2 2.4 18.524705159597005 -58.41680019717566 1.9724999999999968 0 0 0      
89 3 -1.2 16.760447525349676 -59.29892901429932 1.9724999999999968 0 0 0      
90 3 -1.2 19.40683397672067 -60.181057831422976 1.9724999999999968 0 0 0      
91 3 -1.2 18.524705159597005 -58.41680019717566 0.0 0 0 0      
92 1 1.2 21.171091610968013 -59.29892901429932 0.0 0 0 0      
93 2 2.4 22.05322042809168 -56.65254256292832 1.9724999999999968 0 0 0      
94 3 -1.2 20.288962793844348 -57.534671380051975 1.9724999999999968 0 0 0      
95 3 -1.2 22.935349245215345 -58.41680019717563 1.9724999999999968 0 0 0      
96 3 -1.2 22.05322042809168 -56.65254256292832 0.0 0 0 0      
97 1 1.2 24.69960687946268 -57.534671380051975 0.0 0 0 0      
98 2 2.4 25.58173569658635 -54.888284928680974 1.9724999999999968 0 0 0      
99 3 -1.2 23.817478062339013 -55.77041374580463 1.9724999999999968 0 0 0      
100 3 -1.2 26.463864513710007 -56.6525425629283 1.9724999999999968 0 0 0      
101 3 -1.2 25.58173569658635 -54.888284928680974 0.0 0 0 0      
102 3 -1.2 0.0 -65.47383073416498 1.9724999999999968 0 0 0      
103 1 1.2 1.764257634247329 -64.59170191704132 0.0 0 0 0      
104 2 2.4 2.6463864513710007 -61.94531546567032 1.9724999999999968 0 0 0      
105 3 -1.2 0.8821288171236716 -62.82744428279398 1.9724999999999968 0 0 0      
106 3 -1.2 3.5285152684946723 -63.70957309991766 1.9724999999999968 0 0 0      
107 3 -1.2 2.6463864513710007 -61.94531546567032 0.0 0 0 0      
108 1 1.2 5.292772902742016 -62.82744428279398 0.0 0 0 0      
109 2 2.4 6.174901719865673 -60.181057831422976 1.9724999999999968 0 0 0      
110 3 -1.2 4.41064408561833 -61.06318664854663 1.9724999999999968 0 0 0      
111 3 -1.2 7.0570305369893305 -61.94531546567032 1.9724999999999968 0 0 0      
112 3 -1.2 6.174901719865673 -60.181057831422976 0.0 0 0 0      
113 1 1.2 8.821288171236674 -61.06318664854666 0.0 0 0 0      
114 2 2.4 9.703416988360338 -58.41680019717563 1.9724999999999968 0 0 0      
115 3 -1.2 7.939159354113002 -59.29892901429932 1.9724999999999968 0 0 0      
116 3 -1.2 10.58554580548401 -60.181057831422976 1.9724999999999968 0 0 0      
117 3 -1.2 9.703416988360338 -58.41680019717563 0.0 0 0 0      
118 1 1.2 12.349803439731346 -59.29892901429932 0.0 0 0 0      
119 2 2.4 13.231932256855004 -56.65254256292832 1.9724999999999968 0 0 0      
120 3 -1.2 11.467674622607674 -57.534671380051975 1.9724999999999968 0 0 0      
121 3 -1.2 14.114061073978675 -58.41680019717566 1.9724999999999968 0 0 0      
122 3 -1.2 13.231932256855004 -56.65254256292832 0.0 0 0 0      
123 1 1.2 15.878318708226011 -57.534671380051975 0.0 0 0 0      
124 2 2.4 16.76044752534967 -54.888284928680974 1.9724999999999968 0 0 0      
125 3 -1.2 14.99618989110234 -55.77041374580463 1.9724999999999968 0 0 0      
126 3 -1.2 17.64257634247334 -56.65254256292832 1.9724999999999968 0 0 0      
127 3 -1.2 16.76044752534967 -54.888284928680974 0.0 0 0 0      
128 1 1.2 19.406833976720684 -55.77041374580463 0.0 0 0 0      
129 2 2.4 20.28896279384434 -53.12402729443363 1.9724999999999968 0 0 0      
130 3 -1.2 18.52470515959701 -54.0061561115573 1.9724999999999968 0 0 0      
131 3 -1.2 21.171091610968013 -54.888284928681 1.9724999999999968 0 0 0      
132 3 -1.2 20.28896279384434 -53.12402729443363 0.0 0 0 0      
133 1 1.2 22.93534924521535 -54.00615611155732 0.0 0 0 0      
134 2 2.4 23.817478062339006 -51.3597696601863 1.9724999999999968 0 0 0      
135 3 -1.2 22.05322042809168 -52.241898477309974 1.9724999999999968 0 0 0      
136 3 -1.2 24.69960687946268 -53.12402729443363 1.9724999999999968 0 0 0      
137 3 -1.2 23.817478062339006 -51.3597696601863 0.0 0 0 0      
138 1 1.2 26.46386451371001 -52.24189847731 0.0 0 0 0      
139 3 -1.2 25.581735696586342 -50.477640843062645 1.9724999999999968 0 0 0      
140 1 1.2 0.0 -61.06318664854666 0.0 0 0 0      
141 2 2.4 0.8821288171236716 -58.41680019717563 1.9724999999999968 0 0 0      
142 3 -1.2 1.764257634247329 -60.181057831422976 1.9724999999999968 0 0 0      
143 3 -1.2 0.8821288171236716 -58.41680019717563 0.0 0 0 0      
144 1 1.2 3.5285152684946723 -59.29892901429932 0.0 0 0 0      
145 2 2.4 4.41064408561833 -56.6525425629283 1.9724999999999968 0 0 0      
146 3 -1.2 2.6463864513710007 -57.534671380051975 1.9724999999999968 0 0 0      
147 3 -1.2 5.292772902742001 -58.41680019717566 1.9724999999999968 0 0 0      
148 3 -1.2 4.41064408561833 -56.6525425629283 0.0 0 0 0      
149 1 1.2 7.0570305369893305 -57.534671380051975 0.0 0 0 0      
150 2 2.4 7.939159354113002 -54.888284928680974 1.9724999999999968 0 0 0      
151 3 -1.2 6.174901719865673 -55.77041374580463 1.9724999999999968 0 0 0      
152 3 -1.2 8.821288171236674 -56.65254256292832 1.9724999999999968 0 0 0      
153 3 -1.2 7.939159354113002 -54.888284928680974 0.0 0 0 0      
154 1 1.2 10.58554580548401 -55.77041374580463 0.0 0 0 0      
155 2 2.4 11.467674622607667 -53.12402729443363 1.9724999999999968 0 0 0      
156 3 -1.2 9.703416988360338 -54.0061561115573 1.9724999999999968 0 0 0      
157 3 -1.2 12.34980343973134 -54.888284928680974 1.9724999999999968 0 0 0      
158 3 -1.2 11.467674622607667 -53.12402729443363 0.0 0 0 0      
159 1 1.2 14.114061073978675 -54.00615611155732 0.0 0 0 0      
160 2 2.4 14.996189891102333 -51.3597696601863 1.9724999999999968 0 0 0      
161 3 -1.2 13.231932256855004 -52.241898477309974 1.9724999999999968 0 0 0      
162 3 -1.2 15.878318708226004 -53.12402729443363 1.9724999999999968 0 0 0      
163 3 -1.2 14.996189891102333 -51.3597696601863 0.0 0 0 0      
164 1 1.2 17.642576342473347 -52.241898477309974 0.0 0 0 0      
165 2 2.4 18.524705159597005 -49.59551202593896 1.9724999999999968 0 0 0      
166 3 -1.2 16.760447525349676 -50.477640843062645 1.9724999999999968 0 0 0      
167 3 -1.2 19.40683397672068 -51.359769660186316 1.9724999999999968 0 0 0      
168 3 -1.2 18.524705159597005 -49.59551202593896 0.0 0 0 0      
169 1 1.2 21.171091610968013 -50.477640843062645 0.0 0 0 0      
170 2 2.4 22.05322042809168 -47.831254391691644 1.9724999999999968 0 0 0      
171 3 -1.2 20.28896279384434 -48.7133832088153 1.9724999999999968 0 0 0      
172 3 -1.2 22.93534924521535 -49.59551202593896 1.9724999999999968 0 0 0      
173 3 -1.2 22.05322042809168 -47.831254391691644 0.0 0 0 0      
174 1 1.2 24.69960687946268 -48.713383208815316 0.0 0 0 0      
175 2 2.4 25.581735696586332 -46.0669967574443 1.9724999999999968 0 0 0      
176 3 -1.2 23.817478062339006 -46.94912557456796 1.9724999999999968 0 0 0      
177 3 -1.2 26.463864513710007 -47.831254391691644 1.9724999999999968 0 0 0      
178 3 -1.2 25.581735696586332 -46.0669967574443 0.0 0 0 0      
179 3 -1.2 0.0 -56.65254256292832 1.9724999999999968 0 0 0      
180 1 1.2 1.764257634247329 -55.77041374580463 0.0 0 0 0      
181 2 2.4 2.6463864513709865 -53.12402729443363 1.9724999999999968 0 0 0      
182 3 -1.2 0.8821288171236716 -54.0061561115573 1.9724999999999968 0 0 0      
183 3 -1.2 3.5285152684946723 -54.888284928680974 1.9724999999999968 0 0 0      
184 3 -1.2 2.6463864513709865 -53.12402729443363 0.0 0 0 0      
185 1 1.2 5.292772902742001 -54.00615611155732 0.0 0 0 0      
186 2 2.4 6.174901719865673 -51.3597696601863 1.9724999999999968 0 0 0      
187 3 -1.2 4.41064408561833 -52.241898477309974 1.9724999999999968 0 0 0      
188 3 -1.2 7.0570305369893305 -53.12402729443363 1.9724999999999968 0 0 0      
189 3 -1.2 6.174901719865673 -51.3597696601863 0.0 0 0 0      
190 1 1.2 8.821288171236674 -52.241898477309974 0.0 0 0 0      
191 2 2.4 9.703416988360331 -49.59551202593896 1.9724999999999968 0 0 0      
192 3 -1.2 7.939159354113002 -50.477640843062645 1.9724999999999968 0 0 0      
193 3 -1.2 10.585545805484005 -51.359769660186316 1.9724999999999968 0 0 0      
194 3 -1.2 9.703416988360331 -49.59551202593896 0.0 0 0 0      
195 1 1.2 12.34980343973134 -50.477640843062645 0.0 0 0 0      
196 2 2.4 13.231932256854996 -47.831254391691644 1.9724999999999968 0 0 0      
197 3 -1.2 11.467674622607667 -48.7133832088153 1.9724999999999968 0 0 0      
198 3 -1.2 14.114061073978668 -49.59551202593896 1.9724999999999968 0 0 0      
199 3 -1.2 13.231932256854996 -47.831254391691644 0.0 0 0 0      
200 1 1.2 15.878318708226011 -48.7133832088153 0.0 0 0 0      
201 2 2.4 16.76044752534967 -46.0669967574443 1.9724999999999968 0 0 0      
202 3 -1.2 14.99618989110234 -46.94912557456796 1.9724999999999968 0 0 0      
203 3 -1.2 17.64257634247334 -47.831254391691644 1.9724999999999968 0 0 0      
204 3 -1.2 16.76044752534967 -46.0669967574443 0.0 0 0 0      
205 1 1.2 19.40683397672068 -46.94912557456796 0.0 0 0 0      
206 2 2.4 20.28896279384433 -44.30273912319696 1.9724999999999968 0 0 0      
207 3 -1.2 18.524705159597005 -45.18486794032064 1.9724999999999968 0 0 0      
208 3 -1.2 21.17109161096801 -46.0669967574443 1.9724999999999968 0 0 0      
209 3 -1.2 20.28896279384433 -44.30273912319696 0.0 0 0 0      
210 1 1.2 22.935349245215345 -45.18486794032064 0.0 0 0 0      
211 2 2.4 23.817478062339006 -42.53848148894964 1.9724999999999968 0 0 0      
212 3 -1.2 22.05322042809167 -43.4206103060733 1.9724999999999968 0 0 0      
213 3 -1.2 24.69960687946268 -44.30273912319696 1.9724999999999968 0 0 0      
214 3 -1.2 23.817478062339006 -42.53848148894964 0.0 0 0 0      
215 1 1.2 26.463864513710007 -43.4206103060733 0.0 0 0 0      
216 3 -1.2 25.581735696586332 -41.65635267182596 1.9724999999999968 0 0 0      
217 1 1.2 0.0 -52.241898477309974 0.0 0 0 0      
218 2 2.4 0.8821288171236716 -49.59551202593896 1.9724999999999968 0 0 0      
219 3 -1.2 1.764257634247329 -51.3597696601863 1.9724999999999968 0 0 0      
220 3 -1.2 0.8821288171236716 -49.59551202593896 0.0 0 0 0      
221 1 1.2 3.5285152684946723 -50.477640843062645 0.0 0 0 0      
222 2 2.4 4.41064408561833 -47.831254391691644 1.9724999999999968 0 0 0      
223 3 -1.2 2.6463864513710007 -48.713383208815316 1.9724999999999968 0 0 0      
224 3 -1.2 5.292772902742001 -49.59551202593896 1.9724999999999968 0 0 0      
225 3 -1.2 4.41064408561833 -47.831254391691644 0.0 0 0 0      
226 1 1.2 7.0570305369893305 -48.7133832088153 0.0 0 0 0      
227 2 2.4 7.939159354113002 -46.066996757444315 1.9724999999999968 0 0 0      
228 3 -1.2 6.174901719865673 -46.94912557456796 1.9724999999999968 0 0 0      
229 3 -1.2 8.821288171236667 -47.831254391691644 1.9724999999999968 0 0 0      
230 3 -1.2 7.939159354113002 -46.066996757444315 0.0 0 0 0      
231 1 1.2 10.585545805484005 -46.94912557456796 0.0 0 0 0      
232 2 2.4 11.467674622607667 -44.30273912319696 1.9724999999999968 0 0 0      
233 3 -1.2 9.703416988360338 -45.18486794032064 1.9724999999999968 0 0 0      
234 3 -1.2 12.349803439731332 -46.0669967574443 1.9724999999999968 0 0 0      
235 3 -1.2 11.467674622607667 -44.30273912319696 0.0 0 0 0      
236 1 1.2 14.114061073978675 -45.18486794032064 0.0 0 0 0      
237 2 2.4 14.99618989110234 -42.53848148894964 1.9724999999999968 0 0 0      
238 3 -1.2 13.23193225685501 -43.4206103060733 1.9724999999999968 0 0 0      
239 3 -1.2 15.878318708226004 -44.30273912319696 1.9724999999999968 0 0 0      
240 3 -1.2 14.99618989110234 -42.53848148894964 0.0 0 0 0      
241 1 1.2 17.64257634247334 -43.4206103060733 0.0 0 0 0      
242 2 2.4 18.524705159597005 -40.7742238547023 1.9724999999999968 0 0 0      
243 3 -1.2 16.760447525349676 -41.65635267182596 1.9724999999999968 0 0 0      
244 3 -1.2 19.40683397672068 -42.53848148894964 1.9724999999999968 0 0 0      
245 3 -1.2 18.524705159597005 -40.7742238547023 0.0 0 0 0      
246 1 1.2 21.17109161096801 -41.65635267182596 0.0 0 0 0      
247 2 2.4 22.05322042809168 -39.009966220454956 1.9724999999999968 0 0 0      
248 3 -1.2 20.28896279384434 -39.89209503757864 1.9724999999999968 0 0 0      
249 3 -1.2 22.93534924521533 -40.7742238547023 1.9724999999999968 0 0 0      
250 3 -1.2 22.05322042809168 -39.009966220454956 0.0 0 0 0      
251 1 1.2 24.69960687946268 -39.89209503757864 0.0 0 0 0      
252 2 2.4 25.581735696586342 -37.24570858620764 1.9724999999999968 0 0 0      
253 3 -1.2 23.817478062339006 -38.1278374033313 1.9724999999999968 0 0 0      
254 3 -1.2 26.463864513710007 -39.009966220454956 1.9724999999999968 0 0 0      
255 3 -1.2 25.581735696586342 -37.24570858620764 0.0 0 0 0      
256 3 -1.2 0.0 -47.831254391691644 1.9724999999999968 0 0 0      
257 1 1.2 1.764257634247329 -46.94912557456796 0.0 0 0 0      
258 2 2.4 2.6463864513710007 -44.30273912319696 1.9724999999999968 0 0 0      
259 3 -1.2 0.8821288171236716 -45.18486794032064 1.9724999999999968 0 0 0      
260 3 -1.2 3.5285152684946723 -46.066996757444315 1.9724999999999968 0 0 0      
261 3 -1.2 2.6463864513710007 -44.30273912319696 0.0 0 0 0      
262 1 1.2 5.292772902742016 -45.18486794032064 0.0 0 0 0      
263 2 2.4 6.174901719865673 -42.53848148894964 1.9724999999999968 0 0 0      
264 3 -1.2 4.41064408561833 -43.4206103060733 1.9724999999999968 0 0 0      
265 3 -1.2 7.0570305369893305 -44.30273912319696 1.9724999999999968 0 0 0      
266 3 -1.2 6.174901719865673 -42.53848148894964 0.0 0 0 0      
267 1 1.2 8.821288171236674 -43.420610306073314 0.0 0 0 0      
268 2 2.4 9.703416988360331 -40.7742238547023 1.9724999999999968 0 0 0      
269 3 -1.2 7.939159354113002 -41.65635267182596 1.9724999999999968 0 0 0      
270 3 -1.2 10.585545805484005 -42.53848148894964 1.9724999999999968 0 0 0      
271 3 -1.2 9.703416988360331 -40.7742238547023 0.0 0 0 0      
272 1 1.2 12.349803439731346 -41.65635267182596 0.0 0 0 0      
273 2 2.4 13.231932256855004 -39.009966220454956 1.9724999999999968 0 0 0      
274 3 -1.2 11.467674622607674 -39.89209503757864 1.9724999999999968 0 0 0      
275 3 -1.2 14.114061073978675 -40.77422385470231 1.9724999999999968 0 0 0      
276 3 -1.2 13.231932256855004 -39.009966220454956 0.0 0 0 0      
277 1 1.2 15.878318708226011 -39.89209503757864 0.0 0 0 0      
278 2 2.4 16.760447525349676 -37.24570858620764 1.9724999999999968 0 0 0      
279 3 -1.2 14.99618989110234 -38.1278374033313 1.9724999999999968 0 0 0      
280 3 -1.2 17.642576342473347 -39.009966220454956 1.9724999999999968 0 0 0      
281 3 -1.2 16.760447525349676 -37.24570858620764 0.0 0 0 0      
282 1 1.2 19.40683397672068 -38.12783740333131 0.0 0 0 0      
283 2 2.4 20.28896279384433 -35.4814509519603 1.9724999999999968 0 0 0      
284 3 -1.2 18.524705159597005 -36.363579769083955 1.9724999999999968 0 0 0      
285 3 -1.2 21.17109161096801 -37.24570858620764 1.9724999999999968 0 0 0      
286 3 -1.2 20.28896279384433 -35.4814509519603 0.0 0 0 0      
287 1 1.2 22.93534924521535 -36.363579769083955 0.0 0 0 0      
288 2 2.4 23.817478062339006 -33.717193317712955 1.9724999999999968 0 0 0      
289 3 -1.2 22.05322042809168 -34.59932213483664 1.9724999999999968 0 0 0      
290 3 -1.2 24.69960687946268 -35.48145095196031 1.9724999999999968 0 0 0      
291 3 -1.2 23.817478062339006 -33.717193317712955 0.0 0 0 0      
292 1 1.2 26.46386451371001 -34.59932213483664 0.0 0 0 0      
293 3 -1.2 25.581735696586342 -32.8350645005893 1.9724999999999968 0 0 0      
294 1 1.2 0.0 -43.420610306073314 0.0 0 0 0      
295 2 2.4 0.8821288171236716 -40.77422385470231 1.9724999999999968 0 0 0      
296 3 -1.2 1.764257634247329 -42.53848148894964 1.9724999999999968 0 0 0      
297 3 -1.2 0.8821288171236716 -40.77422385470231 0.0 0 0 0      
298 1 1.2 3.5285152684946723 -41.65635267182596 0.0 0 0 0      
299 2 2.4 4.41064408561833 -39.009966220454956 1.9724999999999968 0 0 0      
300 3 -1.2 2.646386451371015 -39.89209503757864 1.9724999999999968 0 0 0      
301 3 -1.2 5.292772902742001 -40.77422385470231 1.9724999999999968 0 0 0      
302 3 -1.2 4.41064408561833 -39.009966220454956 0.0 0 0 0      
303 1 1.2 7.0570305369893305 -39.89209503757864 0.0 0 0 0      
304 2 2.4 7.939159354113002 -37.24570858620764 1.9724999999999968 0 0 0      
305 3 -1.2 6.174901719865673 -38.12783740333131 1.9724999999999968 0 0 0      
306 3 -1.2 8.821288171236667 -39.009966220454956 1.9724999999999968 0 0 0      
307 3 -1.2 7.939159354113002 -37.24570858620764 0.0 0 0 0      
308 1 1.2 10.58554580548401 -38.1278374033313 0.0 0 0 0      
309 2 2.4 11.467674622607674 -35.48145095196031 1.9724999999999968 0 0 0      
310 3 -1.2 9.703416988360344 -36.363579769083955 1.9724999999999968 0 0 0      
311 3 -1.2 12.34980343973134 -37.24570858620764 1.9724999999999968 0 0 0      
312 3 -1.2 11.467674622607674 -35.48145095196031 0.0 0 0 0      
313 1 1.2 14.114061073978675 -36.363579769083955 0.0 0 0 0      
314 2 2.4 14.996189891102349 -33.717193317712955 1.9724999999999968 0 0 0      
315 3 -1.2 13.23193225685501 -34.59932213483664 1.9724999999999968 0 0 0      
316 3 -1.2 15.878318708226004 -35.4814509519603 1.9724999999999968 0 0 0      
317 3 -1.2 14.996189891102349 -33.717193317712955 0.0 0 0 0      
318 1 1.2 17.64257634247334 -34.59932213483664 0.0 0 0 0      
319 2 2.4 18.524705159597005 -31.95293568346564 1.9724999999999968 0 0 0      
320 3 -1.2 16.760447525349676 -32.83506450058931 1.9724999999999968 0 0 0      
321 3 -1.2 19.40683397672068 -33.717193317712955 1.9724999999999968 0 0 0      
322 3 -1.2 18.524705159597005 -31.95293568346564 0.0 0 0 0      
323 1 1.2 21.17109161096801 -32.8350645005893 0.0 0 0 0      
324 2 2.4 22.05322042809168 -30.188678049218325 1.9724999999999968 0 0 0      
325 3 -1.2 20.288962793844348 -31.070806866341954 1.9724999999999968 0 0 0      
326 3 -1.2 22.935349245215345 -31.95293568346564 1.9724999999999968 0 0 0      
327 3 -1.2 22.05322042809168 -30.188678049218325 0.0 0 0 0      
328 1 1.2 24.69960687946268 -31.070806866341954 0.0 0 0 0      
329 2 2.4 25.58173569658635 -28.424420414970953 1.9724999999999968 0 0 0      
330 3 -1.2 23.817478062339013 -29.30654923209464 1.9724999999999968 0 0 0      
331 3 -1.2 26.463864513710007 -30.188678049218296 1.9724999999999968 0 0 0      
332 3 -1.2 25.58173569658635 -28.424420414970953 0.0 0 0 0      
333 3 -1.2 0.0 -39.009966220454956 1.9724999999999968 0 0 0      
334 1 1.2 1.764257634247329 -38.1278374033313 0.0 0 0 0      
335 2 2.4 2.6463864513709865 -35.481450951960284 1.9724999999999968 0 0 0      
336 3 -1.2 0.8821288171236716 -36.363579769083955 1.9724999999999968 0 0 0      
337 3 -1.2 3.5285152684946723 -37.24570858620764 1.9724999999999968 0 0 0      
338 3 -1.2 2.6463864513709865 -35.481450951960284 0.0 0 0 0      
339 1 1.2 5.292772902742001 -36.363579769083955 0.0 0 0 0      
340 2 2.4 6.174901719865659 -33.717193317712955 1.9724999999999968 0 0 0      
341 3 -1.2 4.41064408561833 -34.59932213483664 1.9724999999999968 0 0 0      
342 3 -1.2 7.0570305369893305 -35.4814509519603 1.9724999999999968 0 0 0      
343 3 -1.2 6.174901719865659 -33.717193317712955 0.0 0 0 0      
344 1 1.2 8.821288171236674 -34.59932213483664 0.0 0 0 0      
345 2 2.4 9.703416988360331 -31.95293568346564 1.9724999999999968 0 0 0      
346 3 -1.2 7.939159354113002 -32.83506450058928 1.9724999999999968 0 0 0      
347 3 -1.2 10.585545805484005 -33.717193317712955 1.9724999999999968 0 0 0      
348 3 -1.2 9.703416988360331 -31.95293568346564 0.0 0 0 0      
349 1 1.2 12.34980343973134 -32.8350645005893 0.0 0 0 0      
350 2 2.4 13.231932256855004 -30.188678049218282 1.9724999999999968 0 0 0      
351 3 -1.2 11.467674622607667 -31.070806866341954 1.9724999999999968 0 0 0      
352 3 -1.2 14.114061073978675 -31.95293568346564 1.9724999999999968 0 0 0      
353 3 -1.2 13.231932256855004 -30.188678049218282 0.0 0 0 0      
354 1 1.2 15.878318708226004 -31.070806866341954 0.0 0 0 0      
355 2 2.4 16.76044752534966 -28.424420414970953 1.9724999999999968 0 0 0      
356 3 -1.2 14.996189891102333 -29.30654923209464 1.9724999999999968 0 0 0      
357 3 -1.2 17.642576342473333 -30.188678049218296 1.9724999999999968 0 0 0      
358 3 -1.2 16.76044752534966 -28.424420414970953 0.0 0 0 0      
359 1 1.2 19.40683397672068 -29.30654923209464 0.0 0 0 0      
360 2 2.4 20.28896279384433 -26.66016278072364 1.9724999999999968 0 0 0      
361 3 -1.2 18.524705159597005 -27.54229159784728 1.9724999999999968 0 0 0      
362 3 -1.2 21.17109161096801 -28.424420414970953 1.9724999999999968 0 0 0      
363 3 -1.2 20.28896279384433 -26.66016278072364 0.0 0 0 0      
364 1 1.2 22.935349245215345 -27.542291597847296 0.0 0 0 0      
365 2 2.4 23.817478062339006 -24.89590514647628 1.9724999999999968 0 0 0      
366 3 -1.2 22.05322042809167 -25.778033963599952 1.9724999999999968 0 0 0      
367 3 -1.2 24.69960687946268 -26.66016278072364 1.9724999999999968 0 0 0      
368 3 -1.2 23.817478062339006 -24.89590514647628 0.0 0 0 0      
369 1 1.2 26.463864513710007 -25.778033963599952 0.0 0 0 0      
370 3 -1.2 25.581735696586332 -24.013776329352638 1.9724999999999968 0 0 0      
371 1 1.2 0.0 -34.59932213483664 0.0 0 0 0      
372 2 2.4 0.8821288171236716 -31.95293568346564 1.9724999999999968 0 0 0      
373 3 -1.2 1.764257634247329 -33.717193317712955 1.9724999999999968 0 0 0      
374 3 -1.2 0.8821288171236716 -31.95293568346564 0.0 0 0 0      
375 1 1.2 3.5285152684946723 -32.8350645005893 0.0 0 0 0      
376 2 2.4 4.41064408561833 -30.188678049218296 1.9724999999999968 0 0 0      
377 3 -1.2 2.6463864513710007 -31.070806866341954 1.9724999999999968 0 0 0      
378 3 -1.2 5.292772902741987 -31.95293568346564 1.9724999999999968 0 0 0      
379 3 -1.2 4.41064408561833 -30.188678049218296 0.0 0 0 0      
380 1 1.2 7.0570305369893305 -31.070806866341954 0.0 0 0 0      
381 2 2.4 7.939159354113002 -28.424420414970953 1.9724999999999968 0 0 0      
382 3 -1.2 6.174901719865673 -29.30654923209464 1.9724999999999968 0 0 0      
383 3 -1.2 8.821288171236667 -30.188678049218296 1.9724999999999968 0 0 0      
384 3 -1.2 7.939159354113002 -28.424420414970953 0.0 0 0 0      
385 1 1.2 10.585545805484005 -29.30654923209464 0.0 0 0 0      
386 2 2.4 11.467674622607674 -26.66016278072364 1.9724999999999968 0 0 0      
387 3 -1.2 9.703416988360338 -27.542291597847296 1.9724999999999968 0 0 0      
388 3 -1.2 12.349803439731332 -28.424420414970953 1.9724999999999968 0 0 0      
389 3 -1.2 11.467674622607674 -26.66016278072364 0.0 0 0 0      
390 1 1.2 14.114061073978668 -27.542291597847296 0.0 0 0 0      
391 2 2.4 14.996189891102333 -24.895905146476295 1.9724999999999968 0 0 0      
392 3 -1.2 13.231932256855004 -25.778033963599952 1.9724999999999968 0 0 0      
393 3 -1.2 15.878318708226004 -26.66016278072364 1.9724999999999968 0 0 0      
394 3 -1.2 14.996189891102333 -24.895905146476295 0.0 0 0 0      
395 1 1.2 17.642576342473333 -25.778033963599952 0.0 0 0 0      
396 2 2.4 18.524705159597005 -23.13164751222895 1.9724999999999968 0 0 0      
397 3 -1.2 16.760447525349676 -24.013776329352638 1.9724999999999968 0 0 0      
398 3 -1.2 19.40683397672067 -24.895905146476295 1.9724999999999968 0 0 0      
399 3 -1.2 18.524705159597005 -23.13164751222895 0.0 0 0 0      
400 1 1.2 21.17109161096801 -24.013776329352638 0.0 0 0 0      
401 2 2.4 22.05322042809168 -21.367389877981623 1.9724999999999968 0 0 0      
402 3 -1.2 20.28896279384434 -22.249518695105294 1.9724999999999968 0 0 0      
403 3 -1.2 22.93534924521533 -23.13164751222895 1.9724999999999968 0 0 0      
404 3 -1.2 22.05322042809168 -21.367389877981623 0.0 0 0 0      
405 1 1.2 24.69960687946268 -22.249518695105294 0.0 0 0 0      
406 2 2.4 25.581735696586342 -19.603132243734294 1.9724999999999968 0 0 0      