LAMMPS data file via write_data, version 19 Nov 2024, timestep = 0, units =.1 metal
              
14040 atoms             
3 atom types            
              
0 237.520453066678 xlo xhi           
-47.5040906133356 47.5040906133356 ylo yhi           
0 7.89 zlo zhi           
              
Masses              
              
1 87.62             
2 47.867             
3 15.999             
              
Atoms # charge            
              
1 2 2.4 237.2926518062664 24.50330861244902 1.9725 0 0 0      
2 3 -1.2 237.2926518062664 24.50330861244902 0.0 0 0 0      
3 2 2.4 228.47136363502975 24.503308612449075 1.9725 0 0 0      
4 3 -1.2 228.47136363502975 24.503308612449075 0.0 0 0 0      
5 2 2.4 231.9998789035244 26.26756624669639 1.9725 0 0 0      
6 3 -1.2 230.2356212692771 25.385437429572704 1.9725 0 0 0      
7 3 -1.2 232.8820077206481 24.503308612449047 1.9725 0 0 0      
8 3 -1.2 231.9998789035244 26.26756624669639 0.0 0 0 0      
9 1 1.2 234.64626535489535 25.385437429572704 0.0 0 0 0      
10 2 2.4 235.5283941720191 28.031823880943705 1.9725 0 0 0      
11 3 -1.2 233.7641365377717 27.149695063820047 1.9725 0 0 0      
12 3 -1.2 236.41052298914275 26.26756624669636 1.9725 0 0 0      
13 3 -1.2 235.5283941720191 28.031823880943705 0.0 0 0 0      
14 3 -1.2 237.2926518062664 28.913952698067362 1.9725 0 0 0      
15 2 2.4 219.6500754637931 24.503308612449047 1.9725 0 0 0      
16 3 -1.2 219.6500754637931 24.503308612449047 0.0 0 0 0      
17 2 2.4 223.1785907322877 26.26756624669639 1.9725 0 0 0      
18 3 -1.2 221.4143330980404 25.385437429572733 1.9725 0 0 0      
19 3 -1.2 224.06071954941137 24.503308612449075 1.9725 0 0 0      
20 3 -1.2 223.1785907322877 26.26756624669639 0.0 0 0 0      
21 1 1.2 225.82497718365877 25.385437429572733 0.0 0 0 0      
22 2 2.4 226.7071060007825 28.031823880943733 1.9725 0 0 0      
23 3 -1.2 224.9428483665351 27.149695063820047 1.9725 0 0 0      
24 3 -1.2 227.5892348179061 26.26756624669639 1.9725 0 0 0      
25 3 -1.2 226.7071060007825 28.031823880943733 0.0 0 0 0      
26 1 1.2 229.35349245215343 27.149695063820047 0.0 0 0 0      
27 2 2.4 230.2356212692771 29.796081515191077 1.9725 0 0 0      
28 3 -1.2 228.47136363502975 28.91395269806739 1.9725 0 0 0      
29 3 -1.2 231.11775008640075 28.031823880943733 1.9725 0 0 0      
30 3 -1.2 230.2356212692771 29.796081515191077 0.0 0 0 0      
31 1 1.2 232.8820077206481 28.91395269806739 0.0 0 0 0      
32 2 2.4 233.7641365377717 31.56033914943839 1.9725 0 0 0      
33 3 -1.2 231.9998789035244 30.678210332314734 1.9725 0 0 0      
34 3 -1.2 234.64626535489535 29.796081515191077 1.9725 0 0 0      
35 3 -1.2 233.7641365377717 31.56033914943839 0.0 0 0 0      
36 1 1.2 236.4105229891427 30.678210332314734 0.0 0 0 0      
37 2 2.4 237.2926518062665 33.324596783685735 1.9725 0 0 0      
38 3 -1.2 235.52839417201903 32.44246796656205 1.9725 0 0 0      
39 3 -1.2 237.2926518062665 33.324596783685735 0.0 0 0 0      
40 2 2.4 210.8287872925564 24.503308612449047 1.9725 0 0 0      
41 3 -1.2 210.8287872925564 24.503308612449047 0.0 0 0 0      
42 2 2.4 214.35730256105103 26.26756624669636 1.9725 0 0 0      
43 3 -1.2 212.5930449268037 25.385437429572704 1.9725 0 0 0      
44 3 -1.2 215.23943137817477 24.503308612449047 1.9725 0 0 0      
45 3 -1.2 214.35730256105103 26.26756624669636 0.0 0 0 0      
46 1 1.2 217.0036890124221 25.385437429572704 0.0 0 0 0      
47 2 2.4 217.8858178295457 28.031823880943705 1.9725 0 0 0      
48 3 -1.2 216.1215601952984 27.149695063820047 1.9725 0 0 0      
49 3 -1.2 218.76794664666937 26.26756624669636 1.9725 0 0 0      
50 3 -1.2 217.8858178295457 28.031823880943705 0.0 0 0 0      
51 1 1.2 220.53220428091677 27.149695063820047 0.0 0 0 0      
52 2 2.4 221.4143330980404 29.796081515191048 1.9725 0 0 0      
53 3 -1.2 219.6500754637931 28.91395269806739 1.9725 0 0 0      
54 3 -1.2 222.2964619151641 28.031823880943705 1.9725 0 0 0      
55 3 -1.2 221.4143330980404 29.796081515191048 0.0 0 0 0      
56 1 1.2 224.06071954941143 28.91395269806739 0.0 0 0 0      
57 2 2.4 224.9428483665351 31.56033914943839 1.9725 0 0 0      
58 3 -1.2 223.1785907322877 30.678210332314734 1.9725 0 0 0      
59 3 -1.2 225.82497718365877 29.796081515191077 1.9725 0 0 0      
60 3 -1.2 224.9428483665351 31.56033914943839 0.0 0 0 0      
61 1 1.2 227.5892348179061 30.678210332314734 0.0 0 0 0      
62 2 2.4 228.47136363502975 33.324596783685706 1.9725 0 0 0      
63 3 -1.2 226.7071060007824 32.44246796656205 1.9725 0 0 0      
64 3 -1.2 229.35349245215343 31.56033914943839 1.9725 0 0 0      
65 3 -1.2 228.47136363502975 33.324596783685706 0.0 0 0 0      
66 1 1.2 231.11775008640075 32.44246796656205 0.0 0 0 0      
67 2 2.4 231.9998789035244 35.08885441793305 1.9725 0 0 0      
68 3 -1.2 230.2356212692771 34.20672560080939 1.9725 0 0 0      
69 3 -1.2 232.8820077206481 33.324596783685706 1.9725 0 0 0      
70 3 -1.2 231.9998789035244 35.08885441793305 0.0 0 0 0      
71 1 1.2 234.64626535489535 34.20672560080939 0.0 0 0 0      
72 2 2.4 235.5283941720191 36.85311205218039 1.9725 0 0 0      
73 3 -1.2 233.7641365377717 35.97098323505671 1.9725 0 0 0      
74 3 -1.2 236.41052298914275 35.08885441793308 1.9725 0 0 0      
75 3 -1.2 235.5283941720191 36.85311205218039 0.0 0 0 0      
76 3 -1.2 237.2926518062664 37.73524086930405 1.9725 0 0 0      
77 2 2.4 202.0074991213197 24.503308612449047 1.9725 0 0 0      
78 3 -1.2 202.0074991213197 24.503308612449047 0.0 0 0 0      
79 2 2.4 205.5360143898144 26.26756624669639 1.9725 0 0 0      
80 3 -1.2 203.77175675556708 25.385437429572704 1.9725 0 0 0      
81 3 -1.2 206.4181432069381 24.503308612449075 1.9725 0 0 0      
82 3 -1.2 205.5360143898144 26.26756624669639 0.0 0 0 0      
83 1 1.2 208.18240084118543 25.385437429572733 0.0 0 0 0      
84 2 2.4 209.06452965830908 28.031823880943705 1.9725 0 0 0      
85 3 -1.2 207.30027202406177 27.149695063820047 1.9725 0 0 0      
86 3 -1.2 209.94665847543277 26.26756624669639 1.9725 0 0 0      
87 3 -1.2 209.06452965830908 28.031823880943705 0.0 0 0 0      
88 1 1.2 211.71091610968008 27.149695063820047 0.0 0 0 0      
89 2 2.4 212.5930449268037 29.796081515191048 1.9725 0 0 0      
90 3 -1.2 210.8287872925564 28.91395269806739 1.9725 0 0 0      
91 3 -1.2 213.47517374392737 28.031823880943705 1.9725 0 0 0      
92 3 -1.2 212.5930449268037 29.796081515191048 0.0 0 0 0      
93 1 1.2 215.23943137817477 28.91395269806739 0.0 0 0 0      
94 2 2.4 216.1215601952984 31.560339149438363 1.9725 0 0 0      
95 3 -1.2 214.35730256105109 30.678210332314734 1.9725 0 0 0      
96 3 -1.2 217.0036890124221 29.796081515191048 1.9725 0 0 0      
97 3 -1.2 216.1215601952984 31.560339149438363 0.0 0 0 0      
98 1 1.2 218.76794664666943 30.678210332314734 0.0 0 0 0      
99 2 2.4 219.6500754637931 33.324596783685706 1.9725 0 0 0      
100 3 -1.2 217.88581782954577 32.44246796656205 1.9725 0 0 0      
101 3 -1.2 220.53220428091677 31.56033914943839 1.9725 0 0 0      
102 3 -1.2 219.6500754637931 33.324596783685706 0.0 0 0 0      
103 1 1.2 222.2964619151641 32.44246796656205 0.0 0 0 0      
104 2 2.4 223.17859073228777 35.08885441793308 1.9725 0 0 0      
105 3 -1.2 221.4143330980404 34.20672560080939 1.9725 0 0 0      
106 3 -1.2 224.06071954941143 33.324596783685735 1.9725 0 0 0      
107 3 -1.2 223.17859073228777 35.08885441793308 0.0 0 0 0      
108 1 1.2 225.82497718365877 34.20672560080939 0.0 0 0 0      
109 2 2.4 226.7071060007824 36.85311205218039 1.9725 0 0 0      
110 3 -1.2 224.9428483665351 35.970983235056735 1.9725 0 0 0      
111 3 -1.2 227.5892348179061 35.08885441793308 1.9725 0 0 0      
112 3 -1.2 226.7071060007824 36.85311205218039 0.0 0 0 0      
113 1 1.2 229.35349245215343 35.970983235056735 0.0 0 0 0      
114 2 2.4 230.2356212692771 38.61736968642771 1.9725 0 0 0      
115 3 -1.2 228.4713636350297 37.73524086930405 1.9725 0 0 0      
116 3 -1.2 231.11775008640075 36.85311205218039 1.9725 0 0 0      
117 3 -1.2 230.2356212692771 38.61736968642771 0.0 0 0 0      
118 1 1.2 232.8820077206481 37.73524086930405 0.0 0 0 0      
119 2 2.4 233.76413653777175 40.38162732067508 1.9725 0 0 0      
120 3 -1.2 231.9998789035244 39.499498503551365 1.9725 0 0 0      
121 3 -1.2 234.64626535489543 38.617369686427736 1.9725 0 0 0      
122 3 -1.2 233.76413653777175 40.38162732067508 0.0 0 0 0      
123 1 1.2 236.41052298914275 39.49949850355139 0.0 0 0 0      
124 2 2.4 237.2926518062664 42.145884954922394 1.9725 0 0 0      
125 3 -1.2 235.5283941720191 41.26375613779874 1.9725 0 0 0      
126 3 -1.2 237.2926518062664 42.145884954922394 0.0 0 0 0      
127 2 2.4 193.18621095008308 24.503308612449047 1.9725 0 0 0      
128 3 -1.2 193.18621095008308 24.503308612449047 0.0 0 0 0      
129 2 2.4 196.71472621857777 26.26756624669636 1.9725 0 0 0      
130 3 -1.2 194.9504685843304 25.385437429572704 1.9725 0 0 0      
131 3 -1.2 197.59685503570145 24.503308612449047 1.9725 0 0 0      
132 3 -1.2 196.71472621857777 26.26756624669636 0.0 0 0 0      
133 1 1.2 199.36111266994877 25.385437429572704 0.0 0 0 0      
134 2 2.4 200.2432414870724 28.031823880943705 1.9725 0 0 0      
135 3 -1.2 198.47898385282508 27.149695063820047 1.9725 0 0 0      
136 3 -1.2 201.12537030419605 26.26756624669636 1.9725 0 0 0      
137 3 -1.2 200.2432414870724 28.031823880943705 0.0 0 0 0      
138 1 1.2 202.88962793844337 27.149695063820047 0.0 0 0 0      
139 2 2.4 203.77175675556708 29.796081515191048 1.9725 0 0 0      
140 3 -1.2 202.0074991213197 28.913952698067362 1.9725 0 0 0      
141 3 -1.2 204.65388557269077 28.031823880943705 1.9725 0 0 0      
142 3 -1.2 203.77175675556708 29.796081515191048 0.0 0 0 0      
143 1 1.2 206.4181432069381 28.91395269806739 0.0 0 0 0      
144 2 2.4 207.30027202406177 31.560339149438363 1.9725 0 0 0      
145 3 -1.2 205.53601438981443 30.678210332314734 1.9725 0 0 0      
146 3 -1.2 208.18240084118543 29.796081515191048 1.9725 0 0 0      
147 3 -1.2 207.30027202406177 31.560339149438363 0.0 0 0 0      
148 1 1.2 209.94665847543277 30.678210332314734 0.0 0 0 0      
149 2 2.4 210.8287872925564 33.324596783685706 1.9725 0 0 0      
150 3 -1.2 209.06452965830908 32.44246796656205 1.9725 0 0 0      
151 3 -1.2 211.71091610968008 31.560339149438363 1.9725 0 0 0      
152 3 -1.2 210.8287872925564 33.324596783685706 0.0 0 0 0      
153 1 1.2 213.47517374392737 32.44246796656205 0.0 0 0 0      
154 2 2.4 214.35730256105103 35.08885441793302 1.9725 0 0 0      
155 3 -1.2 212.5930449268037 34.20672560080939 1.9725 0 0 0      
156 3 -1.2 215.2394313781747 33.324596783685706 1.9725 0 0 0      
157 3 -1.2 214.35730256105103 35.08885441793302 0.0 0 0 0      
158 1 1.2 217.0036890124221 34.20672560080939 0.0 0 0 0      
159 2 2.4 217.88581782954577 36.85311205218039 1.9725 0 0 0      
160 3 -1.2 216.12156019529849 35.970983235056735 1.9725 0 0 0      
161 3 -1.2 218.76794664666943 35.08885441793305 1.9725 0 0 0      
162 3 -1.2 217.88581782954577 36.85311205218039 0.0 0 0 0      
163 1 1.2 220.53220428091677 35.970983235056735 0.0 0 0 0      
164 2 2.4 221.4143330980404 38.61736968642771 1.9725 0 0 0      
165 3 -1.2 219.6500754637931 37.73524086930405 1.9725 0 0 0      
166 3 -1.2 222.2964619151641 36.85311205218039 1.9725 0 0 0      
167 3 -1.2 221.4143330980404 38.61736968642771 0.0 0 0 0      
168 1 1.2 224.06071954941137 37.73524086930405 0.0 0 0 0      
169 2 2.4 224.9428483665351 40.38162732067505 1.9725 0 0 0      
170 3 -1.2 223.1785907322877 39.499498503551365 1.9725 0 0 0      
171 3 -1.2 225.82497718365877 38.61736968642771 1.9725 0 0 0      
172 3 -1.2 224.9428483665351 40.38162732067505 0.0 0 0 0      
173 1 1.2 227.5892348179061 39.499498503551365 0.0 0 0 0      
174 2 2.4 228.47136363502975 42.145884954922394 1.9725 0 0 0      
175 3 -1.2 226.7071060007824 41.26375613779871 1.9725 0 0 0      
176 3 -1.2 229.35349245215343 40.38162732067505 1.9725 0 0 0      
177 3 -1.2 228.47136363502975 42.145884954922394 0.0 0 0 0      
178 1 1.2 231.11775008640075 41.26375613779871 0.0 0 0 0      
179 2 2.4 231.9998789035244 43.91014258916971 1.9725 0 0 0      
180 3 -1.2 230.2356212692771 43.02801377204605 1.9725 0 0 0      
181 3 -1.2 232.8820077206481 42.145884954922394 1.9725 0 0 0      
182 3 -1.2 231.9998789035244 43.91014258916971 0.0 0 0 0      
183 1 1.2 234.64626535489535 43.02801377204605 0.0 0 0 0      
184 2 2.4 235.5283941720191 45.67440022341705 1.9725 0 0 0      
185 3 -1.2 233.7641365377717 44.79227140629337 1.9725 0 0 0      
186 3 -1.2 236.41052298914275 43.91014258916971 1.9725 0 0 0      
187 3 -1.2 235.5283941720191 45.67440022341705 0.0 0 0 0      
188 3 -1.2 237.2926518062665 46.55652904054074 1.9725 0 0 0      
189 2 2.4 184.3649227788464 24.503308612449047 1.9725 0 0 0      
190 3 -1.2 184.3649227788464 24.503308612449047 0.0 0 0 0      
191 2 2.4 187.89343804734108 26.26756624669639 1.9725 0 0 0      
192 3 -1.2 186.12918041309376 25.385437429572704 1.9725 0 0 0      
193 3 -1.2 188.77556686446476 24.503308612449075 1.9725 0 0 0      
194 3 -1.2 187.89343804734108 26.26756624669639 0.0 0 0 0      
195 1 1.2 190.53982449871205 25.385437429572704 0.0 0 0 0      
196 2 2.4 191.4219533158357 28.031823880943705 1.9725 0 0 0      
197 3 -1.2 189.6576956815884 27.149695063820047 1.9725 0 0 0      
198 3 -1.2 192.30408213295945 26.26756624669639 1.9725 0 0 0      
199 3 -1.2 191.4219533158357 28.031823880943705 0.0 0 0 0      
200 1 1.2 194.06833976720677 27.149695063820047 0.0 0 0 0      
201 2 2.4 194.9504685843304 29.796081515191048 1.9725 0 0 0      
202 3 -1.2 193.18621095008305 28.913952698067362 1.9725 0 0 0      
203 3 -1.2 195.83259740145405 28.031823880943705 1.9725 0 0 0      
204 3 -1.2 194.9504685843304 29.796081515191048 0.0 0 0 0      
205 1 1.2 197.59685503570137 28.913952698067362 0.0 0 0 0      
206 2 2.4 198.47898385282508 31.560339149438363 1.9725 0 0 0      
207 3 -1.2 196.7147262185777 30.678210332314706 1.9725 0 0 0      
208 3 -1.2 199.36111266994877 29.796081515191048 1.9725 0 0 0      
209 3 -1.2 198.47898385282508 31.560339149438363 0.0 0 0 0      
210 1 1.2 201.12537030419605 30.678210332314734 0.0 0 0 0      
211 2 2.4 202.0074991213197 33.324596783685706 1.9725 0 0 0      
212 3 -1.2 200.2432414870724 32.44246796656205 1.9725 0 0 0      
213 3 -1.2 202.88962793844345 31.56033914943839 1.9725 0 0 0      
214 3 -1.2 202.0074991213197 33.324596783685706 0.0 0 0 0      
215 1 1.2 204.65388557269077 32.44246796656205 0.0 0 0 0      
216 2 2.4 205.5360143898144 35.08885441793305 1.9725 0 0 0      
217 3 -1.2 203.77175675556708 34.20672560080939 1.9725 0 0 0      
218 3 -1.2 206.41814320693803 33.324596783685706 1.9725 0 0 0      
219 3 -1.2 205.5360143898144 35.08885441793305 0.0 0 0 0      
220 1 1.2 208.18240084118543 34.20672560080939 0.0 0 0 0      
221 2 2.4 209.06452965830908 36.85311205218039 1.9725 0 0 0      
222 3 -1.2 207.30027202406177 35.970983235056735 1.9725 0 0 0      
223 3 -1.2 209.94665847543277 35.08885441793305 1.9725 0 0 0      
224 3 -1.2 209.06452965830908 36.85311205218039 0.0 0 0 0      
225 1 1.2 211.71091610968008 35.970983235056735 0.0 0 0 0      
226 2 2.4 212.5930449268037 38.61736968642771 1.9725 0 0 0      
227 3 -1.2 210.8287872925564 37.73524086930405 1.9725 0 0 0      
228 3 -1.2 213.47517374392737 36.85311205218039 1.9725 0 0 0      
229 3 -1.2 212.5930449268037 38.61736968642771 0.0 0 0 0      
230 1 1.2 215.23943137817477 37.73524086930405 0.0 0 0 0      
231 2 2.4 216.1215601952984 40.38162732067505 1.9725 0 0 0      
232 3 -1.2 214.35730256105109 39.49949850355139 1.9725 0 0 0      
233 3 -1.2 217.0036890124221 38.61736968642771 1.9725 0 0 0      
234 3 -1.2 216.1215601952984 40.38162732067505 0.0 0 0 0      
235 1 1.2 218.76794664666943 39.49949850355139 0.0 0 0 0      
236 2 2.4 219.6500754637931 42.145884954922394 1.9725 0 0 0      
237 3 -1.2 217.88581782954577 41.26375613779874 1.9725 0 0 0      
238 3 -1.2 220.53220428091677 40.38162732067508 1.9725 0 0 0      
239 3 -1.2 219.6500754637931 42.145884954922394 0.0 0 0 0      
240 1 1.2 222.2964619151641 41.26375613779874 0.0 0 0 0      
241 2 2.4 223.1785907322877 43.91014258916971 1.9725 0 0 0      
242 3 -1.2 221.4143330980404 43.02801377204605 1.9725 0 0 0      
243 3 -1.2 224.06071954941143 42.145884954922394 1.9725 0 0 0      
244 3 -1.2 223.1785907322877 43.91014258916971 0.0 0 0 0      
245 1 1.2 225.82497718365877 43.02801377204605 0.0 0 0 0      
246 2 2.4 226.7071060007824 45.67440022341705 1.9725 0 0 0      
247 3 -1.2 224.94284836653503 44.79227140629337 1.9725 0 0 0      
248 3 -1.2 227.5892348179061 43.91014258916971 1.9725 0 0 0      
249 3 -1.2 226.7071060007824 45.67440022341705 0.0 0 0 0      
250 1 1.2 229.35349245215335 44.79227140629337 0.0 0 0 0      
251 2 2.4 230.2356212692771 47.438657857664396 1.9725 0 0 0      
252 3 -1.2 228.4713636350297 46.55652904054071 1.9725 0 0 0      
253 3 -1.2 231.11775008640075 45.67440022341708 1.9725 0 0 0      
254 3 -1.2 230.2356212692771 47.438657857664396 0.0 0 0 0      
255 1 1.2 232.8820077206481 46.55652904054074 0.0 0 0 0      
256 2 2.4 233.7641365377717 49.20291549191171 1.9725 0 0 0      
257 3 -1.2 231.9998789035244 48.32078667478805 1.9725 0 0 0      
258 3 -1.2 234.64626535489543 47.438657857664396 1.9725 0 0 0      
259 3 -1.2 233.7641365377717 49.20291549191171 0.0 0 0 0      
260 1 1.2 236.41052298914275 48.32078667478805 0.0 0 0 0      
261 2 2.4 237.2926518062664 50.967173126159054 1.9725 0 0 0      
262 3 -1.2 235.5283941720191 50.085044309035396 1.9725 0 0 0      
263 3 -1.2 237.2926518062664 50.967173126159054 0.0 0 0 0      
264 2 2.4 175.54363460760976 24.503308612449047 1.9725 0 0 0      
265 3 -1.2 175.54363460760976 24.503308612449047 0.0 0 0 0      
266 2 2.4 179.0721498761044 26.26756624669639 1.9725 0 0 0      
267 3 -1.2 177.30789224185708 25.385437429572704 1.9725 0 0 0      
268 3 -1.2 179.95427869322805 24.503308612449047 1.9725 0 0 0      
269 3 -1.2 179.0721498761044 26.26756624669639 0.0 0 0 0      
270 1 1.2 181.71853632747536 25.385437429572704 0.0 0 0 0      
271 2 2.4 182.60066514459908 28.031823880943705 1.9725 0 0 0      
272 3 -1.2 180.8364075103517 27.149695063820047 1.9725 0 0 0      
273 3 -1.2 183.48279396172276 26.26756624669636 1.9725 0 0 0      
274 3 -1.2 182.60066514459908 28.031823880943705 0.0 0 0 0      
275 1 1.2 185.2470515959701 27.149695063820047 0.0 0 0 0      
276 2 2.4 186.12918041309376 29.796081515191077 1.9725 0 0 0      
277 3 -1.2 184.3649227788464 28.91395269806739 1.9725 0 0 0      
278 3 -1.2 187.01130923021745 28.031823880943705 1.9725 0 0 0      
279 3 -1.2 186.12918041309376 29.796081515191077 0.0 0 0 0      
280 1 1.2 188.77556686446476 28.913952698067362 0.0 0 0 0      
281 2 2.4 189.6576956815884 31.56033914943839 1.9725 0 0 0      
282 3 -1.2 187.89343804734108 30.678210332314734 1.9725 0 0 0      
283 3 -1.2 190.53982449871205 29.796081515191048 1.9725 0 0 0      
284 3 -1.2 189.6576956815884 31.56033914943839 0.0 0 0 0      
285 1 1.2 192.30408213295937 30.678210332314706 0.0 0 0 0      
286 2 2.4 193.18621095008308 33.324596783685706 1.9725 0 0 0      
287 3 -1.2 191.4219533158357 32.44246796656205 1.9725 0 0 0      
288 3 -1.2 194.06833976720677 31.560339149438363 1.9725 0 0 0      
289 3 -1.2 193.18621095008308 33.324596783685706 0.0 0 0 0      
290 1 1.2 195.83259740145405 32.44246796656205 0.0 0 0 0      
291 2 2.4 196.7147262185777 35.08885441793305 1.9725 0 0 0      
292 3 -1.2 194.9504685843304 34.20672560080939 1.9725 0 0 0      
293 3 -1.2 197.59685503570145 33.324596783685706 1.9725 0 0 0      
294 3 -1.2 196.7147262185777 35.08885441793305 0.0 0 0 0      
295 1 1.2 199.36111266994877 34.20672560080939 0.0 0 0 0      
296 2 2.4 200.2432414870724 36.85311205218039 1.9725 0 0 0      
297 3 -1.2 198.47898385282508 35.970983235056735 1.9725 0 0 0      
298 3 -1.2 201.12537030419605 35.08885441793305 1.9725 0 0 0      
299 3 -1.2 200.2432414870724 36.85311205218039 0.0 0 0 0      
300 1 1.2 202.88962793844345 35.970983235056735 0.0 0 0 0      
301 2 2.4 203.77175675556708 38.61736968642771 1.9725 0 0 0      
302 3 -1.2 202.00749912131977 37.73524086930405 1.9725 0 0 0      
303 3 -1.2 204.65388557269077 36.85311205218039 1.9725 0 0 0      
304 3 -1.2 203.77175675556708 38.61736968642771 0.0 0 0 0      
305 1 1.2 206.4181432069381 37.73524086930405 0.0 0 0 0      
306 2 2.4 207.3002720240617 40.38162732067505 1.9725 0 0 0      
307 3 -1.2 205.5360143898144 39.49949850355139 1.9725 0 0 0      
308 3 -1.2 208.18240084118543 38.61736968642771 1.9725 0 0 0      
309 3 -1.2 207.3002720240617 40.38162732067505 0.0 0 0 0      
310 1 1.2 209.94665847543277 39.499498503551365 0.0 0 0 0      
311 2 2.4 210.8287872925564 42.145884954922394 1.9725 0 0 0      
312 3 -1.2 209.06452965830908 41.26375613779874 1.9725 0 0 0      
313 3 -1.2 211.71091610968008 40.38162732067502 1.9725 0 0 0      
314 3 -1.2 210.8287872925564 42.145884954922394 0.0 0 0 0      
315 1 1.2 213.47517374392743 41.26375613779874 0.0 0 0 0      
316 2 2.4 214.35730256105109 43.91014258916971 1.9725 0 0 0      
317 3 -1.2 212.59304492680377 43.02801377204605 1.9725 0 0 0      
318 3 -1.2 215.23943137817477 42.145884954922394 1.9725 0 0 0      
319 3 -1.2 214.35730256105109 43.91014258916971 0.0 0 0 0      
320 1 1.2 217.0036890124221 43.02801377204605 0.0 0 0 0      
321 2 2.4 217.88581782954577 45.67440022341708 1.9725 0 0 0      
322 3 -1.2 216.1215601952984 44.792271406293395 1.9725 0 0 0      
323 3 -1.2 218.76794664666943 43.91014258916971 1.9725 0 0 0      
324 3 -1.2 217.88581782954577 45.67440022341708 0.0 0 0 0      
325 1 1.2 220.53220428091677 44.79227140629337 0.0 0 0 0      
326 2 2.4 221.4143330980404 47.438657857664396 1.9725 0 0 0      
327 3 -1.2 219.6500754637931 46.55652904054074 1.9725 0 0 0      
328 3 -1.2 222.2964619151641 45.67440022341705 1.9725 0 0 0      
329 3 -1.2 221.4143330980404 47.438657857664396 0.0 0 0 0      
330 1 1.2 224.06071954941137 46.55652904054071 0.0 0 0 0      
331 2 2.4 224.9428483665351 49.20291549191171 1.9725 0 0 0      
332 3 -1.2 223.1785907322877 48.32078667478805 1.9725 0 0 0      
333 3 -1.2 225.82497718365877 47.438657857664396 1.9725 0 0 0      
334 3 -1.2 224.9428483665351 49.20291549191171 0.0 0 0 0      
335 1 1.2 227.5892348179061 48.32078667478805 0.0 0 0 0      
336 2 2.4 228.47136363502975 50.96717312615908 1.9725 0 0 0      
337 3 -1.2 226.7071060007824 50.08504430903537 1.9725 0 0 0      
338 3 -1.2 229.35349245215343 49.20291549191171 1.9725 0 0 0      
339 3 -1.2 228.47136363502975 50.96717312615908 0.0 0 0 0      
340 1 1.2 231.11775008640075 50.08504430903537 0.0 0 0 0      
341 2 2.4 231.9998789035244 52.7314307604064 1.9725 0 0 0      
342 3 -1.2 230.2356212692771 51.84930194328274 1.9725 0 0 0      
343 3 -1.2 232.8820077206481 50.967173126159054 1.9725 0 0 0      
344 3 -1.2 231.9998789035244 52.7314307604064 0.0 0 0 0      
345 1 1.2 234.64626535489543 51.84930194328274 0.0 0 0 0      
346 2 2.4 235.5283941720191 54.49568839465371 1.9725 0 0 0      
347 3 -1.2 233.76413653777175 53.613559577530054 1.9725 0 0 0      
348 3 -1.2 236.41052298914275 52.7314307604064 1.9725 0 0 0      
349 3 -1.2 235.5283941720191 54.49568839465371 0.0 0 0 0      
350 3 -1.2 237.2926518062664 55.3778172117774 1.9725 0 0 0      
351 2 2.4 166.72234643637307 24.503308612449075 1.9725 0 0 0      
352 3 -1.2 166.72234643637307 24.503308612449075 0.0 0 0 0      
353 2 2.4 170.2508617048677 26.26756624669639 1.9725 0 0 0      
354 3 -1.2 168.4866040706204 25.385437429572733 1.9725 0 0 0      
355 3 -1.2 171.13299052199136 24.503308612449047 1.9725 0 0 0      
356 3 -1.2 170.2508617048677 26.26756624669639 0.0 0 0 0      
357 1 1.2 172.89724815623873 25.385437429572704 0.0 0 0 0      
358 2 2.4 173.7793769733624 28.031823880943705 1.9725 0 0 0      
359 3 -1.2 172.01511933911502 27.149695063820047 1.9725 0 0 0      
360 3 -1.2 174.6615057904861 26.26756624669639 1.9725 0 0 0      
361 3 -1.2 173.7793769733624 28.031823880943705 0.0 0 0 0      
362 1 1.2 176.42576342473342 27.149695063820047 0.0 0 0 0      
363 2 2.4 177.30789224185708 29.796081515191048 1.9725 0 0 0      
364 3 -1.2 175.54363460760976 28.91395269806739 1.9725 0 0 0      
365 3 -1.2 178.19002105898073 28.031823880943705 1.9725 0 0 0      
366 3 -1.2 177.30789224185708 29.796081515191048 0.0 0 0 0      
367 1 1.2 179.95427869322805 28.913952698067362 0.0 0 0 0      
368 2 2.4 180.8364075103517 31.56033914943839 1.9725 0 0 0      
369 3 -1.2 179.0721498761044 30.678210332314734 1.9725 0 0 0      
370 3 -1.2 181.71853632747536 29.796081515191048 1.9725 0 0 0      
371 3 -1.2 180.8364075103517 31.56033914943839 0.0 0 0 0      
372 1 1.2 183.48279396172276 30.678210332314734 0.0 0 0 0      
373 2 2.4 184.36492277884645 33.324596783685735 1.9725 0 0 0      
374 3 -1.2 182.60066514459908 32.44246796656205 1.9725 0 0 0      
375 3 -1.2 185.2470515959701 31.56033914943839 1.9725 0 0 0      
376 3 -1.2 184.36492277884645 33.324596783685735 0.0 0 0 0      
377 1 1.2 187.01130923021745 32.44246796656205 0.0 0 0 0      
378 2 2.4 187.89343804734108 35.08885441793308 1.9725 0 0 0      
379 3 -1.2 186.12918041309376 34.20672560080939 1.9725 0 0 0      
380 3 -1.2 188.77556686446476 33.324596783685706 1.9725 0 0 0      
381 3 -1.2 187.89343804734108 35.08885441793308 0.0 0 0 0      
382 1 1.2 190.53982449871205 34.20672560080939 0.0 0 0 0      
383 2 2.4 191.4219533158357 36.85311205218039 1.9725 0 0 0      
384 3 -1.2 189.6576956815884 35.970983235056735 1.9725 0 0 0      
385 3 -1.2 192.30408213295937 35.08885441793305 1.9725 0 0 0      
386 3 -1.2 191.4219533158357 36.85311205218039 0.0 0 0 0      
387 1 1.2 194.06833976720668 35.97098323505671 0.0 0 0 0      
388 2 2.4 194.9504685843304 38.61736968642771 1.9725 0 0 0      
389 3 -1.2 193.18621095008305 37.73524086930405 1.9725 0 0 0      
390 3 -1.2 195.83259740145405 36.85311205218039 1.9725 0 0 0      
391 3 -1.2 194.9504685843304 38.61736968642771 0.0 0 0 0      
392 1 1.2 197.59685503570145 37.73524086930405 0.0 0 0 0      
393 2 2.4 198.47898385282508 40.38162732067508 1.9725 0 0 0      
394 3 -1.2 196.71472621857777 39.49949850355139 1.9725 0 0 0      
395 3 -1.2 199.36111266994877 38.61736968642771 1.9725 0 0 0      
396 3 -1.2 198.47898385282508 40.38162732067508 0.0 0 0 0      
397 1 1.2 201.12537030419605 39.49949850355139 0.0 0 0 0      
398 2 2.4 202.0074991213197 42.145884954922394 1.9725 0 0 0      
399 3 -1.2 200.2432414870724 41.26375613779874 1.9725 0 0 0      
400 3 -1.2 202.88962793844337 40.38162732067505 1.9725 0 0 0      
401 3 -1.2 202.0074991213197 42.145884954922394 0.0 0 0 0      
402 1 1.2 204.65388557269077 41.26375613779874 0.0 0 0 0      
403 2 2.4 205.5360143898144 43.91014258916971 1.9725 0 0 0      
404 3 -1.2 203.77175675556708 43.02801377204605 1.9725 0 0 0      
405 3 -1.2 206.41814320693803 42.145884954922394 1.9725 0 0 0      
406 3 -1.2 205.5360143898144 43.91014258916971 0.0 0 0 0      
407 1 1.2 208.18240084118543 43.02801377204605 0.0 0 0 0      
408 2 2.4 209.06452965830908 45.67440022341705 1.9725 0 0 0      
409 3 -1.2 207.30027202406177 44.792271406293395 1.9725 0 0 0      
410 3 -1.2 209.94665847543277 43.91014258916971 1.9725 0 0 0      
411 3 -1.2 209.06452965830908 45.67440022341705 0.0 0 0 0      
412 1 1.2 211.71091610968008 44.792271406293395 0.0 0 0 0      
413 2 2.4 212.5930449268037 47.438657857664396 1.9725 0 0 0      
414 3 -1.2 210.8287872925564 46.55652904054074 1.9725 0 0 0      
415 3 -1.2 213.47517374392737 45.67440022341705 1.9725 0 0 0      
416 3 -1.2 212.5930449268037 47.438657857664396 0.0 0 0 0      
417 1 1.2 215.23943137817477 46.55652904054074 0.0 0 0 0      
418 2 2.4 216.12156019529849 49.20291549191174 1.9725 0 0 0      
419 3 -1.2 214.35730256105109 48.32078667478805 1.9725 0 0 0      
420 3 -1.2 217.0036890124221 47.438657857664396 1.9725 0 0 0      
421 3 -1.2 216.12156019529849 49.20291549191174 0.0 0 0 0      
422 1 1.2 218.76794664666943 48.32078667478805 0.0 0 0 0      
423 2 2.4 219.6500754637931 50.96717312615908 1.9725 0 0 0      
424 3 -1.2 217.88581782954577 50.085044309035396 1.9725 0 0 0      
425 3 -1.2 220.53220428091677 49.20291549191171 1.9725 0 0 0      
426 3 -1.2 219.6500754637931 50.96717312615908 0.0 0 0 0      
427 1 1.2 222.2964619151641 50.08504430903537 0.0 0 0 0      
428 2 2.4 223.1785907322877 52.7314307604064 1.9725 0 0 0      
429 3 -1.2 221.4143330980404 51.84930194328274 1.9725 0 0 0      
430 3 -1.2 224.06071954941137 50.967173126159054 1.9725 0 0 0      
431 3 -1.2 223.1785907322877 52.7314307604064 0.0 0 0 0      
432 1 1.2 225.8249771836587 51.84930194328271 0.0 0 0 0      
433 2 2.4 226.7071060007825 54.49568839465374 1.9725 0 0 0      
434 3 -1.2 224.94284836653503 53.613559577530054 1.9725 0 0 0      
435 3 -1.2 227.5892348179061 52.7314307604064 1.9725 0 0 0      
436 3 -1.2 226.7071060007825 54.49568839465374 0.0 0 0 0      
437 1 1.2 229.35349245215343 53.613559577530054 0.0 0 0 0      
438 2 2.4 230.2356212692771 56.25994602890108 1.9725 0 0 0      
439 3 -1.2 228.47136363502975 55.3778172117774 1.9725 0 0 0      
440 3 -1.2 231.11775008640075 54.49568839465371 1.9725 0 0 0      
441 3 -1.2 230.2356212692771 56.25994602890108 0.0 0 0 0      
442 1 1.2 232.8820077206481 55.3778172117774 0.0 0 0 0      
443 2 2.4 233.7641365377717 58.0242036631484 1.9725 0 0 0      
444 3 -1.2 231.9998789035244 57.14207484602474 1.9725 0 0 0      
445 3 -1.2 234.64626535489535 56.259946028901055 1.9725 0 0 0      
446 3 -1.2 233.7641365377717 58.0242036631484 0.0 0 0 0      
447 1 1.2 236.41052298914275 57.14207484602471 0.0 0 0 0      
448 2 2.4 237.2926518062664 59.78846129739574 1.9725 0 0 0      
449 3 -1.2 235.5283941720191 58.906332480272084 1.9725 0 0 0      
450 3 -1.2 237.2926518062664 59.78846129739574 0.0 0 0 0      
451 2 2.4 157.90105826513638 24.503308612449075 1.9725 0 0 0      
452 3 -1.2 157.90105826513638 24.503308612449075 0.0 0 0 0      
453 2 2.4 161.42957353363107 26.26756624669639 1.9725 0 0 0      