LAMMPS data file via write_data, version 17 Apr 2024, timestep = 100000, units = metal

1326 atoms
3 atom types

-1.2404674127129418 16.343612419836223 xlo xhi
-149.86554035841556 149.86554035841556 ylo yhi
0.1736485075064802 3.771351492493483 zlo zhi

Masses

1 87.62
2 47.867
3 15.999

Atoms # charge

49 1 1.09514563106796 -0.8450337222512395 -147.9752728050498 0.8076537083430712 0 0 0
28 3 -1.24450549450549 1.000432833194668 -149.03152591008336 2.710910894566113 0 0 0
26 2 2.32135922330097 1.7915248321117545 -147.2711663090394 2.512120537184961 0 0 0
29 3 -1.24450549450549 2.1908420440623533 -147.37118932526238 0.7842949346245561 0 0 0
129 3 -1.24450549450549 4.497061657570654 -149.46745275275606 0.8268288427762873 0 1 0
11 3 -1.24450549450549 6.119214684784621 -148.11980303130386 2.7433690125063874 0 0 0
2 1 1.09514563106796 7.782291279765152 -149.45427214910606 1.102301008192111 0 1 0
12 3 -1.24450549450549 9.027558457946755 -147.81876249334147 2.80668117189554 0 0 0
10 2 2.32135922330097 7.427846054918211 -146.66147636117054 2.8784597722552014 0 0 0
1 2 2.32135922330097 10.541491677342183 -148.96379596504863 2.824000909368122 0 1 0
722 3 -1.24450549450549 10.964263307818486 -149.31471092767086 1.0346674839058099 0 1 0
5 3 -1.24450549450549 12.005494643449467 -147.6163076173178 2.7780788334437165 0 0 0
27 3 -1.24450549450549 14.007577491678997 -148.48492479334408 0.7512586006360202 -1 0 1
4 2 2.32135922330097 13.739072886158446 -147.8426126853429 2.4956600544529746 0 0 0
17 3 -1.24450549450549 15.088242418008146 -146.68343686981103 2.5528810216557556 0 0 0
51 3 -1.24450549450549 0.277411032081025 -146.282669989347 2.466691411380772 0 0 0
53 1 1.09514563106796 1.5058472359127233 -144.36180128206203 0.66844722839633 0 0 0
30 1 1.09514563106796 4.7200993426098385 -146.73135831006397 0.7803418186341687 0 0 0
32 3 -1.24450549450549 3.4672092025438417 -145.42072163953972 2.602563545592715 0 0 0
31 2 2.32135922330097 4.6599512499670155 -143.80705565826284 2.631384941592689 0 0 0
34 3 -1.24450549450549 4.097809806560527 -143.49073309741905 0.7849901636720358 0 0 0
13 3 -1.24450549450549 7.461433997553886 -146.54962114831454 1.0847197703399398 0 0 0
33 3 -1.24450549450549 6.207472472438702 -144.94610350000423 2.8705552490048385 0 0 0
35 1 1.09514563106796 7.504884079666356 -143.59826263303106 1.1371743887839192 0 0 0
14 1 1.09514563106796 10.49806951215999 -146.24946898630162 1.0635828144472037 0 0 0
16 3 -1.24450549450549 9.480454014953878 -144.62924731051552 3.254086483300619 0 0 0
18 3 -1.24450549450549 11.324429606793545 -143.69370138834614 1.5506922023937642 0 0 0
15 2 2.32135922330097 10.74364015823331 -143.33720962919546 3.3670445540437797 0 0 0
52 3 -1.24450549450549 -1.080265084314855 -144.8412267360961 0.6195121345844479 0 0 0
50 2 2.32135922330097 16.12147118102894 -145.17676344638383 2.4365201613036067 -1 0 0
55 3 -1.24450549450549 14.732584365227419 -143.75043943898956 2.34010831326769 -1 0 0
56 3 -1.24450549450549 0.41554748328892943 -142.77049140149808 2.3520324569887556 0 0 0
54 2 2.32135922330097 1.0937091787089015 -141.02294879909064 2.4064286445477157 0 0 0
57 3 -1.24450549450549 1.5538237983666359 -141.1270943025756 0.5808375523808258 0 0 0
58 1 1.09514563106796 4.1708208936175 -140.7786078989348 0.8748303346490032 0 0 0
37 3 -1.24450549450549 5.58255425520054 -142.16752048606503 2.7539845643685394 0 0 0
39 3 -1.24450549450549 7.039164869574982 -140.63366703261278 1.018719936230701 0 0 0
36 2 2.32135922330097 6.678207657823797 -140.3471346043075 2.768539479306943 0 0 0
38 3 -1.24450549450549 9.649886078636007 -141.9570761329362 3.3141511804884143 0 0 0
40 1 1.09514563106796 9.514280595060482 -140.3397504261266 1.5704826670200347 0 0 0
21 3 -1.24450549450549 12.634121372115168 -142.5368596242177 3.5060263889316596 0 0 0
77 1 1.09514563106796 -1.205533798995279 -142.2945336020854 0.46463843004586475 0 0 0
43 3 -1.24450549450549 14.437669762224855 -141.08568782897632 1.8492125106646673 0 0 0
20 2 2.32135922330097 13.37110326456619 -142.6656204597186 1.752376629462645 0 0 0
79 3 -1.24450549450549 -0.5289302589622421 -140.0573263433274 2.236016328834749 0 0 0
81 1 1.09514563106796 0.8626201201570542 -138.25045113229322 0.8709263947252465 0 0 0
60 3 -1.24450549450549 2.4472741487488117 -139.3889243196646 2.6111625134738947 0 0 0
62 3 -1.24450549450549 3.369870432503432 -137.5579638562512 0.9027928450904096 0 0 0
59 2 2.32135922330097 3.849188732586901 -137.88627869579284 2.7633728008068426 0 0 0
61 3 -1.24450549450549 5.216237286082939 -139.24845879259553 2.886111474831427 0 0 0
63 1 1.09514563106796 6.615643479476426 -137.32673260707796 1.0644857030879016 0 0 0
42 3 -1.24450549450549 8.076617531999215 -138.83616113645357 2.852105960763761 0 0 0
41 2 2.32135922330097 9.405591132986585 -137.41241580050732 2.9194941363091846 0 0 0
44 3 -1.24450549450549 9.629653616967701 -137.77180942790764 1.079214365870047 0 0 0
78 2 2.32135922330097 15.310865498451069 -139.56667862579903 2.037220777855052 -1 0 0
80 3 -1.24450549450549 15.302540389880864 -138.94989822105845 0.2365509813352928 -1 0 0
83 3 -1.24450549450549 13.05880711540814 -137.58828437807028 1.4292094012387084 -1 0 0
46 2 2.32135922330097 12.834194690292149 -136.95375563696572 3.231639531849912 0 0 0
84 3 -1.24450549450549 0.17801022485749995 -136.1880973000779 2.9949581098691533 0 0 0
82 2 2.32135922330097 0.14753383434805145 -134.36529231632935 3.06155985256905 0 0 0
85 3 -1.24450549450549 0.45031820304352 -134.04388097253724 1.310595179510211 0 0 0
107 3 -1.24450549450549 16.015218054765185 -133.75022530476878 3.090703219623113 -1 0 0
86 1 1.09514563106796 4.280124833516896 -134.61991739402185 0.9793395851664936 0 0 0
65 3 -1.24450549450549 5.092551852415143 -136.4616822845054 2.7275613616239296 0 0 0
64 2 2.32135922330097 7.391521267851935 -134.4125541620143 2.815050393542295 0 0 0
67 3 -1.24450549450549 6.9048325930845795 -134.50698714771244 1.0169552082046827 0 0 0
66 3 -1.24450549450549 8.432429915375437 -135.92008034395928 2.905960803593567 0 0 0
68 1 1.09514563106796 10.394961276848203 -134.5613615998817 1.2205640817123644 0 0 0
47 3 -1.24450549450549 11.162669750278134 -136.39463031156342 2.9404077627739564 0 0 0
105 1 1.09514563106796 15.723636322615231 -136.1189812684827 1.4326551046336107 -1 0 0
71 3 -1.24450549450549 14.018513156019212 -135.68713295358506 3.178167738945384 0 0 0
108 3 -1.24450549450549 13.593014405002407 -133.77603185258246 1.291793721918877 -1 0 0
106 2 2.32135922330097 14.11910777161703 -133.7267713820493 3.071838467947803 -1 0 0
112 3 -1.24450549450549 -0.009428409042357977 -130.66086833684122 2.781713854384341 0 0 0
109 1 1.09514563106796 1.7007029945404701 -131.53837940965147 0.8503793944147952 0 0 0
88 3 -1.24450549450549 3.202915632523463 -132.81070333551054 2.7404417640602725 0 0 0
90 3 -1.24450549450549 4.2141996098027 -131.16857870759068 0.9326372416576061 0 0 0
87 2 2.32135922330097 4.6553332992114935 -131.62147957588448 2.6522771398882448 0 0 0
89 3 -1.24450549450549 5.963435626721716 -132.73803380074102 2.842432597222766 0 0 0
91 1 1.09514563106796 7.436813730802664 -131.5558673606423 0.9995162214325534 0 0 0
70 3 -1.24450549450549 8.895230548018699 -133.26673631755355 2.9017207602951665 0 0 0
69 2 2.32135922330097 10.122763136347592 -131.38478951018132 2.8966252892550326 0 0 0
72 3 -1.24450549450549 10.461079501281274 -131.84232295544712 1.1579186146718827 0 0 0
75 3 -1.24450549450549 11.570780684746008 -130.1211794031728 3.070023686629934 0 0 0
133 1 1.09514563106796 16.0247908408043 -131.7222508249962 1.0788713398489855 -1 0 0
111 3 -1.24450549450549 14.006144909604247 -131.84467722225705 3.098782875528207 -1 0 0
110 2 2.32135922330097 0.16497154251673796 -128.9105721119714 2.6006663780296693 0 0 0
113 3 -1.24450549450549 0.9000977399924661 -128.68601412932787 0.746787845827497 0 0 0
135 3 -1.24450549450549 16.09870532080444 -128.2073496793522 2.1872989588555924 -1 0 0
114 1 1.09514563106796 4.639192834420812 -128.68265434301588 0.9222301851864358 0 0 0
116 3 -1.24450549450549 3.5573438593893076 -127.26973172532803 2.625736830981352 0 0 0
94 3 -1.24450549450549 8.802860952477648 -130.31551862607236 2.6900739454843894 0 0 0
93 3 -1.24450549450549 5.866618496124066 -130.04834758281402 2.7583216837109417 0 0 0
92 2 2.32135922330097 7.303312523823616 -128.85860580605427 2.7507821781555686 0 0 0
95 3 -1.24450549450549 7.655214995171404 -128.73466436579596 0.897197422492038 0 0 0
117 3 -1.24450549450549 6.5204180709024335 -127.06621876557412 2.7023516280799287 0 0 0
96 1 1.09514563106796 10.351110112364209 -128.5306175447268 1.1617634353529467 0 0 0
74 2 2.32135922330097 13.320838257589484 -130.17444788017826 3.234378529612549 0 0 0
136 3 -1.24450549450549 13.693963491474433 -128.05674757372753 3.34118055433081 -1 0 -1
99 3 -1.24450549450549 13.941477137983764 -129.79439835171337 1.4464619570432256 0 0 0
134 2 2.32135922330097 14.397746466837132 -127.80502443674088 1.6184198787486477 -1 0 0
140 3 -1.24450549450549 0.6952596970725797 -125.12134889748742 2.2372513117081896 0 0 0
161 1 1.09514563106796 -1.0368365855620054 -124.94225904813828 0.284621829496063 0 0 0
137 1 1.09514563106796 2.0538682581912133 -126.35903359892659 0.7281414793928617 0 0 0
118 3 -1.24450549450549 4.610808219860067 -125.60287387011667 0.9786416525607712 0 0 0
115 2 2.32135922330097 5.055590139486925 -125.95148698284665 2.7058625151860696 0 0 0
121 3 -1.24450549450549 6.0593112239391465 -124.23608075058186 2.644258055548253 0 0 0
119 1 1.09514563106796 8.097408004464496 -125.536016661252 0.9701928844640014 0 0 0
98 3 -1.24450549450549 9.818936744452182 -126.81441973166653 3.124189685209192 0 0 0
122 3 -1.24450549450549 9.814720399557176 -124.07349209455342 2.951362372728373 0 0 0
97 2 2.32135922330097 10.97632594494433 -125.39823068241881 3.0965748033043754 0 0 0
100 3 -1.24450549450549 11.62336052722904 -125.59087127918899 1.34205595704028 0 0 0
103 3 -1.24450549450549 12.86389053423206 -124.18707405580861 3.1770853256311966 0 0 0
102 2 2.32135922330097 13.429077397358883 -124.46086984473229 1.32899008755124 0 0 0
139 3 -1.24450549450549 14.401220857484779 -125.98087461492784 1.5586367318546561 -1 0 0
163 3 -1.24450549450549 -0.14212729176626815 -122.40143789905417 2.2211818789163864 0 0 0
138 2 2.32135922330097 1.5422901457677645 -123.33043854065906 2.328688548064231 0 0 0
141 3 -1.24450549450549 2.1094523252727 -123.57744742367174 0.45888453375894084 0 0 0
165 1 1.09514563106796 0.7390724675689024 -120.2849763197631 0.18675619322208759 0 0 0
144 3 -1.24450549450549 2.757244018616961 -121.75332023101284 2.3709305039933595 0 0 0
142 1 1.09514563106796 4.634733997873722 -123.14794369090802 0.8027848698638201 0 0 0
145 3 -1.24450549450549 5.65223576884213 -121.50182834944891 2.6005911171562053 0 0 0
120 2 2.32135922330097 7.186298889029388 -122.5849583041945 2.760821784526753 0 0 0
123 3 -1.24450549450549 7.523034697260824 -122.67999599343558 0.9785201014131545 0 0 0
126 3 -1.24450549450549 8.493430198264779 -120.9816785753369 2.6770140644357348 0 0 0
124 1 1.09514563106796 10.00284921177378 -122.3349249939965 1.1429426293543885 0 0 0
162 2 2.32135922330097 15.80255613374991 -121.75000991431702 1.947111686052355 -1 0 0
164 3 -1.24450549450549 15.663368401489073 -121.2071950431055 3.7599912810061804 -1 0 -1
127 3 -1.24450549450549 14.736096463183353 -123.20861788044937 1.7009034179734563 0 0 0
169 3 -1.24450549450549 1.0766357927004102 -117.7176296590645 0.22090445931851208 0 0 0
168 3 -1.24450549450549 -0.4431521435290231 -119.03043825011 2.0282345653991074 0 0 0
166 2 2.32135922330097 0.6155705944151559 -117.34211830790372 2.0130500083440412 0 0 0
143 2 2.32135922330097 4.015637238301896 -120.27960814551626 2.4406181831530356 0 0 0
146 3 -1.24450549450549 3.5847109580575296 -119.94867720128236 0.5869833047798456 0 0 0
149 3 -1.24450549450549 5.192741170207575 -118.65663258084155 2.329168212746662 0 0 0
147 1 1.09514563106796 6.872690083444915 -119.65985994588861 0.4805349021046801 0 0 0
150 3 -1.24450549450549 8.158287900159651 -118.1521401704716 2.442423964950338 0 0 0
125 2 2.32135922330097 9.618119028309286 -119.25170015610269 2.560507687815673 0 0 0
128 3 -1.24450549450549 10.048678560469709 -119.65539047067679 0.7616112291027954 0 0 0
131 3 -1.24450549450549 10.807828117873639 -117.61007182407721 2.5124568013068176 0 0 0
130 2 2.32135922330097 12.545065021185994 -117.7220035971111 2.2304319828825134 0 0 0
189 1 1.09514563106796 15.59568263609545 -118.00892546478023 0.2600466595753323 -1 0 0
167 3 -1.24450549450549 12.947836973751553 -118.3327985792637 0.46198953868462717 -1 0 0
193 1 1.09514563106796 0.24915641770143981 -114.4388390669614 0.518483782771231 0 0 0
191 3 -1.24450549450549 -0.8607899371857439 -116.256710908017 2.180844696022624 0 0 0
172 3 -1.24450549450549 2.0902967289946845 -116.02889920402615 1.9473542980179341 0 0 0
170 1 1.09514563106796 3.535328490231956 -117.20474614063102 0.3983889686852416 0 0 0
171 2 2.32135922330097 3.3604519698335604 -114.52806849614313 2.1382383524731825 0 0 0
173 3 -1.24450549450549 4.862205669897821 -115.75027701733421 2.2448667698222673 0 0 0
174 3 -1.24450549450549 3.020434149902532 -114.25772001201436 0.36743733801760614 0 0 0
148 2 2.32135922330097 6.255589374499672 -117.04317619005484 2.3143594167697676 0 0 0
151 3 -1.24450549450549 6.460873853371777 -116.96006732560542 0.5418760611345802 0 0 0
154 3 -1.24450549450549 7.96317885707453 -114.82934031710147 2.2267598604472774 0 0 0
175 1 1.09514563106796 6.24010852159092 -113.71159499429294 0.3055557296867606 0 0 0
152 1 1.09514563106796 9.080401668911158 -116.47166461732785 0.5374252053988882 0 0 0
155 3 -1.24450549450549 13.610882295476555 -116.26426677380604 2.3337970184272487 0 0 0
190 2 2.32135922330097 14.744543272896978 -114.82665127962196 2.1594538209446847 -1 0 0
192 3 -1.24450549450549 15.158628871901591 -114.586546349007 0.4366306405506423 -1 0 0
194 2 2.32135922330097 0.855888188853859 -111.0885798718299 2.206143407321865 0 0 0
197 3 -1.24450549450549 1.2375160622757204 -111.37381907592986 0.36006372372429185 0 0 0
196 3 -1.24450549450549 -0.18908576349743744 -112.68621872928767 2.249789322264858 0 0 0
198 1 1.09514563106796 3.660652388413305 -111.26409029764159 0.33087132260452123 0 0 0
177 3 -1.24450549450549 4.422967749987713 -112.88530509672475 2.169247094930513 0 0 0
179 3 -1.24450549450549 6.494554208039903 -111.00484880828549 0.38574828803247785 0 0 0
178 3 -1.24450549450549 8.533682306948405 -112.06110165717668 2.152350458497133 0 0 0
153 2 2.32135922330097 9.29984493512958 -113.61299520761511 2.161108890627734 0 0 0
156 3 -1.24450549450549 9.936098545097336 -113.90691644781216 0.3684158721502646 0 0 0
159 3 -1.24450549450549 12.236493643988815 -111.45426095128116 0.3604731156513168 0 0 1
217 1 1.09514563106796 15.691503751336803 -111.9120071661981 0.22566913990195217 -1 0 0
158 2 2.32135922330097 13.039634586372568 -111.57811972077378 2.0529120608181284 0 0 0
195 3 -1.24450549450549 13.857742833785505 -113.12213475537273 2.1996430463257397 -1 0 0
221 1 1.09514563106796 0.6839542702851642 -108.48593634333932 0.40829748489374523 0 0 0
219 3 -1.24450549450549 -0.6153801834174797 -109.89539342969654 2.2694207165099236 0 0 0
200 3 -1.24450549450549 2.222170382080951 -109.6681171977016 2.2035228101093454 0 0 0
202 3 -1.24450549450549 3.191274078907573 -108.0016161143344 0.4730411235217176 0 0 0
199 2 2.32135922330097 3.642440381123615 -108.35746575950779 2.2713471553917515 0 0 0
201 3 -1.24450549450549 5.03453134996416 -109.59550499309648 2.154043436034203 0 0 0
176 2 2.32135922330097 6.687764838151173 -110.71042169478193 2.1050823165920756 0 0 0
203 1 1.09514563106796 6.327680205069834 -107.92110045619712 0.377050953411325 0 0 0
182 3 -1.24450549450549 7.939578186843221 -109.30617111027452 2.234368445766477 0 0 0
180 1 1.09514563106796 9.533321469914993 -110.44629905232662 0.18403516473268416 0 0 0
184 3 -1.24450549450549 9.507824901558461 -107.9730087051725 0.3734689174027702 0 0 0
183 3 -1.24450549450549 14.249519766866271 -110.31101663889982 2.173058011094283 0 0 0
218 2 2.32135922330097 15.493197654097287 -108.86919675620362 2.153803884447356 -1 0 0
220 3 -1.24450549450549 15.161643053478585 -108.45202609334657 0.32536003591607465 -1 0 0
224 3 -1.24450549450549 -0.8867725149389205 -107.0527631696841 2.174219007410387 0 0 0
222 2 2.32135922330097 0.10877426768923182 -105.37242821140865 2.139480040245421 0 0 0
225 3 -1.24450549450549 0.5015503822736755 -105.6704263630381 0.31346792467585155 0 0 0
247 3 -1.24450549450549 16.261550506884667 -104.21661945766456 2.029071887847323 -1 0 0
205 3 -1.24450549450549 4.701012842100096 -106.75183200815752 2.2246939697931483 0 0 0
226 1 1.09514563106796 3.2180481189911525 -105.30549205436925 0.4927624864911017 0 0 0
181 2 2.32135922330097 9.14387105162419 -107.5290906178488 2.160690873641003 0 0 0
204 2 2.32135922330097 5.974416827255684 -105.11567254483833 2.120257046839703 0 0 0
207 3 -1.24450549450549 6.01808928426981 -104.9896872162667 0.3392507348479333 0 0 0
206 3 -1.24450549450549 7.633992925721051 -106.50077614242511 2.0237953844910352 0 0 0
208 1 1.09514563106796 8.862219941075766 -104.65566924144794 0.32320363194997265 0 0 0
187 3 -1.24450549450549 10.43759198042071 -106.01429136852153 1.9902504022436553 0 0 0
186 2 2.32135922330097 12.193200805519991 -105.80335428302197 2.04377845363544 0 0 0
223 3 -1.24450549450549 12.562456317867204 -106.28010743788457 0.21022171502958262 -1 0 1
245 1 1.09514563106796 15.078502582932167 -105.88737439058724 0.2883502400094061 -1 0 0
211 3 -1.24450549450549 13.398827678782636 -104.36437424413712 1.9622602999559393 0 0 0
228 3 -1.24450549450549 1.5312466220434806 -104.04067041818726 2.2185936882984443 0 0 0
249 1 1.09514563106796 0.14916897712115817 -102.52566673356486 0.4210280403138365 0 0 0
229 3 -1.24450549450549 4.521989343421826 -103.79181557542981 2.1025783545470844 0 0 0
230 3 -1.24450549450549 2.8158993275181468 -102.21695718695739 0.3446307364947796 0 0 0
227 2 2.32135922330097 3.327078262271799 -102.39197145729212 2.185938156806743 0 0 0
231 1 1.09514563106796 5.975126342873347 -101.92895610270415 0.231463670720101 0 0 0
210 3 -1.24450549450549 7.581877161706572 -103.2423978882204 2.010712469660239 0 0 0
209 2 2.32135922330097 8.801475004947688 -101.8981065529425 2.16659722916668 0 0 0
212 3 -1.24450549450549 9.27278702720033 -102.16352579737782 0.2854792268450382 0 0 0
246 2 2.32135922330097 14.678844239822615 -102.99473215808214 2.114295289636577 -1 0 0
248 3 -1.24450549450549 15.076362879463964 -102.6190571509629 0.3414038611772029 -1 0 0
251 3 -1.24450549450549 13.576502806259114 -101.25643389670863 2.13045087901115 -1 0 0
252 3 -1.24450549450549 -0.409379475421625 -100.8644326001477 2.1609691697708273 0 0 0
256 3 -1.24450549450549 1.943609797408615 -98.4874403629095 2.0556485284722266 0 0 0
250 2 2.32135922330097 0.39446874575702506 -99.29144523860876 2.0164230820636915 0 0 0
253 3 -1.24450549450549 0.03161734375095615 -98.80707500777956 0.2054529924834277 0 0 0
233 3 -1.24450549450549 4.379272534860128 -100.89120700397258 2.147588258479768 0 0 0
254 1 1.09514563106796 3.6273804902875417 -99.19541077689045 0.1899808137551135 0 0 0
257 3 -1.24450549450549 5.23809809932868 -97.56900060137409 1.9286467602179722 0 0 0
234 3 -1.24450549450549 7.738470782584082 -100.45598051241574 2.1705048751045384 0 0 0
232 2 2.32135922330097 6.5889427792155955 -98.93066715281367 2.0599176190464057 0 0 0
235 3 -1.24450549450549 6.292176850448247 -99.1827235410357 0.2687061587926174 0 0 0
236 1 1.09514563106796 9.218401288891407 -99.10280771571823 0.407855065655612 0 0 0
215 3 -1.24450549450549 10.583977356700316 -100.36842312396348 2.0432809648785826 0 0 0
214 2 2.32135922330097 12.215779497335966 -100.08811765895459 2.1150557787726 0 0 0
239 3 -1.24450549450549 12.530238377850795 -99.31168638451021 0.26952066096904814 0 0 1
273 1 1.09514563106796 15.244831346952871 -100.05248400731332 0.571969855395877 -1 0 0
277 1 1.09514563106796 1.072417529233375 -96.55669860106784 3.7558182809004053 0 0 -1
280 3 -1.24450549450549 2.2708485775450966 -94.94112682432518 1.9348128026825713 0 0 0
258 3 -1.24450549450549 3.5687568952223128 -96.44301430059893 0.1738544073609394 0 0 0
255 2 2.32135922330097 3.8785257758580407 -96.2070832161643 1.9644607380433547 0 0 0
261 3 -1.24450549450549 5.059525301274727 -94.85006623070456 2.068878140698398 0 0 0
238 3 -1.24450549450549 8.018968404990165 -97.58727399481108 2.11839662126601 0 0 0
259 1 1.09514563106796 6.522603039327156 -96.17106782510311 0.20315336886753804 0 0 0
262 3 -1.24450549450549 7.923770777388162 -94.81679161436685 2.1018552853661463 0 0 0
237 2 2.32135922330097 9.154006248585846 -96.15761461684255 2.0929120258473923 0 0 0
276 3 -1.24450549450549 12.481216536677913 -97.26719502708437 2.1186257325220295 -1 0 0
240 3 -1.24450549450549 9.72400767798033 -96.56960934040629 0.2568235122375979 0 0 0
242 2 2.32135922330097 12.460918953723057 -94.8855165061313 2.110211859450027 0 0 0
279 3 -1.24450549450549 12.974233266461175 -95.34987349131615 0.27652949471321897 -1 0 1
243 3 -1.24450549450549 10.73551619890042 -94.70826142146893 2.1062984822656947 0 0 0
274 2 2.32135922330097 13.06460084030688 -97.40227013413352 0.32071917033381037 -1 0 1
275 3 -1.24450549450549 14.756368408947738 -97.5269496126291 0.4494716694964631 -1 0 1
281 3 -1.24450549450549 0.4650139812135927 -94.25069910197345 3.6732533251413395 0 0 -1
278 2 2.32135922330097 0.8322512227757062 -93.60575254417712 1.9438225854331117 0 0 0
284 3 -1.24450549450549 1.8668322758282492 -92.09580784289423 1.8674138827517812 0 0 0
282 1 1.09514563106796 3.657300706379873 -93.6677978090206 3.7630259486924107 0 0 -1
285 3 -1.24450549450549 4.641860432608246 -91.98679135164133 1.978811892597448 0 0 0
260 2 2.32135922330097 6.399066127979602 -93.43835599541583 2.0636086814814814 0 0 0
263 3 -1.24450549450549 6.323482900733159 -93.43138063079161 0.279713818500828 0 0 0
266 3 -1.24450549450549 7.7375991808652795 -91.96636893248899 2.0907696142997905 0 0 0
264 1 1.09514563106796 9.1460721837183 -93.20119105147515 0.36475287257489786 0 0 0
301 1 1.09514563106796 15.412384629773989 -93.97119040134149 3.674310889383583 -1 0 -1
303 3 -1.24450549450549 -0.8734782826320684 -92.69557091235046 1.847172679436224 0 0 0
267 3 -1.24450549450549 13.33070985276519 -93.29329871047361 1.8925015704360646 0 0 0
302 2 2.32135922330097 14.01154137642715 -91.50971707451261 1.8873387242496678 -1 0 0
304 3 -1.24450549450549 14.556407236775971 -91.49629556574112 3.6373861887198853 -1 0 -1
305 1 1.09514563106796 -0.0836898587159598 -90.80326909917328 3.6803536425130563 0 0 -1
308 3 -1.24450549450549 -0.5238815867540751 -88.92462326281805 1.899587591828913 0 0 0
286 3 -1.24450549450549 2.7515291994729814 -90.215064824806 3.6734124014838256 0 0 -1
283 2 2.32135922330097 3.226370801559848 -90.7297971771643 1.855549276303399 0 0 0
289 3 -1.24450549450549 4.5545033398615695 -89.16664102554276 1.9239338845708425 0 0 0
287 1 1.09514563106796 5.99607950555919 -90.68809453547937 0.3829757443138124 0 0 0
268 3 -1.24450549450549 9.13447551945524 -90.6083099973162 0.23126599716506124 0 0 0
265 2 2.32135922330097 8.774541886684473 -90.25224658418563 2.040915016602421 0 0 0
290 3 -1.24450549450549 7.289584699276656 -89.0476894666986 2.01804336025262 0 0 0
271 3 -1.24450549450549 10.26228545932805 -89.05598814408059 1.9678332343874196 0 0 0
270 2 2.32135922330097 11.991217594719231 -88.6308209375606 1.9563724317150564 0 0 0
331 3 -1.24450549450549 12.190437788279032 -88.00362624373851 0.17575618585492236 -1 0 0
307 3 -1.24450549450549 13.253024206980331 -89.890541437751 1.8444293004353751 -1 0 0
329 1 1.09514563106796 15.077350251791255 -88.53918508776064 3.632899835056815 -1 0 -1
309 3 -1.24450549450549 -0.5433993644954984 -86.51153792924913 0.20143983732107618 0 0 0
306 2 2.32135922330097 -0.357839579955165 -87.0153945226783 1.9854600372762712 0 0 0
313 3 -1.24450549450549 1.419037651175604 -86.51624433379578 1.9750802251715505 0 0 0
311 2 2.32135922330097 2.278976249779311 -84.7442253004183 2.0825232302223236 0 0 0
314 3 -1.24450549450549 2.7190126142483617 -84.97296206319767 0.2337286793388209 0 0 0
310 1 1.09514563106796 2.8732257043101788 -87.60937124282123 3.7555512620461315 0 0 -1
288 2 2.32135922330097 5.935008293812341 -87.77298925720439 1.9346408403159354 0 0 0
291 3 -1.24450549450549 5.436744447808033 -87.31842633206288 3.7013166431816273 0 0 -1
315 1 1.09514563106796 5.433482367068779 -84.67338922178101 0.2008457305031861 0 0 0
294 3 -1.24450549450549 7.157201559999423 -86.33847581636698 1.7965129385894643 0 0 0
293 2 2.32135922330097 8.24761714137371 -84.79791732852968 1.9728372507402105 0 0 0
292 1 1.09514563106796 9.19481450906757 -87.38106726211075 3.7553070450657065 0 0 -1
295 3 -1.24450549450549 9.992591891715685 -85.68786448976793 1.9881717949786464 0 0 0
312 3 -1.24450549450549 15.164028029284836 -86.7832384871547 1.886632469078754 -1 0 0
333 1 1.09514563106796 14.649173653401528 -85.28906483626378 3.656588186097717 -1 0 -1
336 3 -1.24450549450549 0.877470855813407 -83.47478795510243 2.0130440175524704 0 0 0
334 2 2.32135922330097 -0.6602825616627664 -82.61140516748212 1.878059582887919 0 0 0
338 1 1.09514563106796 2.8870098977988166 -81.89833781418159 3.643163021780472 0 0 -1
317 3 -1.24450549450549 3.9246469533651043 -83.55449880415111 1.9899598444758633 0 0 0
319 3 -1.24450549450549 5.589846820133482 -81.83264770530647 3.6746736178470965 0 0 -1
316 2 2.32135922330097 5.784377172544147 -81.92212754524006 1.8864094863062753 0 0 0
296 3 -1.24450549450549 8.583257395961104 -84.43122891204771 3.7498059481921864 0 0 -1
318 3 -1.24450549450549 6.885387197600846 -83.39808516964749 2.0263079322723185 0 0 0
320 1 1.09514563106796 8.780524040535427 -81.719674913446 3.6580721832034433 0 0 -1
332 3 -1.24450549450549 12.104400717134167 -84.81659273288832 0.1913892936139412 -1 0 0
330 2 2.32135922330097 11.244552643558452 -84.52277370885119 2.17154312290712 -1 0 0
299 3 -1.24450549450549 10.599755205309368 -82.88200830698584 1.9558736451394796 0 0 0
335 3 -1.24450549450549 12.265803951736755 -81.75107642027788 3.7097938829169514 -1 0 -1
337 3 -1.24450549450549 16.29213195206157 -82.86041816375096 3.754126041036304 -1 0 -1
340 3 -1.24450549450549 -0.6258658098006088 -80.815873806067 1.9460689402164966 0 0 0
361 1 1.09514563106796 -0.19883340778838687 -78.89968864291627 3.7705859991135484 0 0 -1
342 3 -1.24450549450549 2.4282833996009834 -79.04702613257224 3.6673233501084805 0 0 -1
339 2 2.32135922330097 2.9019995601872512 -78.70902873183671 1.9123322406366 0 0 0
341 3 -1.24450549450549 4.1894338151747395 -80.2092275205692 1.9328480299015092 0 0 0
343 1 1.09514563106796 5.596666577006116 -79.12945177908743 3.6750693400183376 0 0 -1
322 3 -1.24450549450549 7.317842910087888 -80.55029392843659 1.9084496812163476 0 0 0
321 2 2.32135922330097 8.48858553599113 -79.09315245032613 1.8474029642690502 0 0 0
324 3 -1.24450549450549 8.723267465757244 -78.91174812458955 3.667244207502005 0 0 -1
298 2 2.32135922330097 11.834921443018853 -81.35362100747655 1.869118237187798 0 0 0
323 3 -1.24450549450549 10.377502135069044 -80.02898348229272 1.7769857551707902 0 0 0
358 2 2.32135922330097 11.62210769230013 -78.46684728823638 1.7879533028073142 -1 0 0
359 3 -1.24450549450549 12.859720718763658 -79.86180712683758 1.8128398876144958 -1 0 0
357 1 1.09514563106796 14.572733723622255 -80.19479888224363 3.615535215120988 -1 0 -1
364 3 -1.24450549450549 1.3772146942804722 -77.46357514878233 1.965193260928252 0 0 0
362 2 2.32135922330097 0.05587436341637031 -76.2800157884497 1.9958414829042126 0 0 0
365 3 -1.24450549450549 -0.24639000713126336 -75.92630475723702 0.27236328527602716 0 0 0
366 1 1.09514563106796 2.842026786753477 -75.59675980782751 3.666752221319713 0 0 -1
345 3 -1.24450549450549 4.1855876658580105 -77.42655309341707 1.8700503526454335 0 0 0
344 2 2.32135922330097 5.615816117938553 -76.28057664453777 1.859248437618434 0 0 0
347 3 -1.24450549450549 6.070074888552801 -75.90129527475749 3.679193258579743 0 0 -1
346 3 -1.24450549450549 7.121602001726979 -77.7247941746298 1.8916314121721456 0 0 0
348 1 1.09514563106796 8.528687784594753 -76.2502341119882 3.627518928628411 0 0 -1
360 3 -1.24450549450549 12.316055692860115 -77.90188024195598 3.608701327615301 -1 0 -1
327 3 -1.24450549450549 10.503643726984118 -77.11280188602828 1.6965482179842635 0 0 0
326 2 2.32135922330097 11.217532236159215 -75.34591047189427 1.560602717654273 0 0 0
351 3 -1.24450549450549 10.727565235667791 -75.02324155203738 3.3876955481312034 0 0 -1
363 3 -1.24450549450549 16.014927384955953 -77.53774261968672 2.044570550094078 -1 0 0
387 3 -1.24450549450549 12.986374411648328 -75.12010467761321 1.6436901648210447 -1 0 0
385 1 1.09514563106796 14.523943228313431 -76.5154282219011 3.7347002801828957 -1 0 -1
368 3 -1.24450549450549 1.0848412171508546 -74.6190376404838 1.9968502206983247 0 0 0
389 1 1.09514563106796 -0.2547444421059589 -73.3215570381474 3.573622382366937 0 0 -1
369 3 -1.24450549450549 4.537723406249649 -74.6676985315307 1.9762302040315147 0 0 0
367 2 2.32135922330097 2.529355172175263 -72.71810472882277 1.967328874175871 0 0 0
370 3 -1.24450549450549 2.590423350142111 -72.99094407086156 0.20266885665311918 0 0 0
371 1 1.09514563106796 5.505976057036469 -73.14951639283655 3.656236345736581 0 0 -1
350 3 -1.24450549450549 8.259584277972596 -73.09147407404899 3.424704991769606 0 0 -1
349 2 2.32135922330097 10.039105563996117 -73.12433479243414 3.3605897134322014 0 0 -1
352 3 -1.24450549450549 10.286800340505428 -73.40449097945331 1.5957947743225578 0 0 -1
355 3 -1.24450549450549 12.918937905435769 -72.17600584681756 1.7023343349573883 0 0 0
388 3 -1.24450549450549 14.537489074130653 -73.92816029418681 3.4942061590548397 -1 0 -1
391 3 -1.24450549450549 15.792036375257126 -72.09085994304115 1.7743249373820391 -1 0 0
386 2 2.32135922330097 14.165372328907798 -73.53243977163235 1.6977559483789024 -1 0 0