ITEM: TIMESTEP
0
ITEM: NUMBER OF ATOMS
85866
ITEM: BOX BOUNDS pp pp pp
-1.8446742832517821e-02 1.5845861538135151e+02
-1.4162989128793197e+02 1.4162989128793197e+02
2.3316304280904202e-02 2.3646683695719098e+01
ITEM: ATOMS id mass type xs ys zs
1 47.867 2 0.0089433 0.00825145 0.0833333
2 15.999 3 0.0097955 0.00139456 0.0833333
3 47.867 2 0.0343891 0.00883693 0.0833333
4 15.999 3 0.021722 0.0085759 0.0833333
5 15.999 3 0.0352809 0.00195751 0.0833333
6 87.62 1 0.0478795 0.0022664 0
7 47.867 2 0.0597325 0.00947582 0.0833333
8 15.999 3 0.0471027 0.00918473 0.0833333
9 15.999 3 0.0605377 0.00258895 0.0833333
10 87.62 1 0.073057 0.00287124 3.00192e-16
11 15.999 3 0.0723372 0.00982393 0.0833333
12 47.867 2 0.0849163 0.0101014 0.0833333
13 15.999 3 0.0856126 0.00321227 0.0833333
14 87.62 1 0.0981509 0.00350512 3.25453e-16
15 15.999 3 0.097477 0.0104434 0.0833333
16 47.867 2 0.110024 0.0107432 0.0833333
17 15.999 3 0.110687 0.00385598 0.0833333
18 15.999 3 0.110007 0.0107544 0
19 87.62 1 0.123186 0.0041547 4.50288e-16
20 15.999 3 0.12254 0.0110998 0.0833333
21 47.867 2 0.135043 0.0114145 0.0833333
22 15.999 3 0.135676 0.00451618 0.0833333
23 15.999 3 0.160603 0.00520173 0.0833333
24 15.999 3 0.185471 0.00590958 0.0833333
25 87.62 1 0.197899 0.00623989 4.50288e-16
26 15.999 3 0.223344 3.79981e-05 0.0833333
27 15.999 3 0.210302 0.00663378 0.0833333
28 87.62 1 0.22272 0.00697015 1.50096e-16
29 47.867 2 0.23576 0.000386873 0.0833333
30 15.999 3 0.235752 0.000403451 6.00531e-16
31 15.999 3 0.248158 0.000769095 0.0833333
32 15.999 3 0.235112 0.00736765 0.0833333
33 87.62 1 0.247527 0.00770666 0
34 47.867 2 0.260572 0.00112078 0.0833333
35 15.999 3 0.260565 0.00113726 3.00192e-16
36 15.999 3 0.259916 0.00810459 0.0833333
37 47.867 2 0.285382 0.00185731 0.0833333
38 15.999 3 0.272969 0.00150437 0.0833333
39 15.999 3 0.284722 0.00884155 0.0833333
40 47.867 2 0.310199 0.00259348 0.0833333
41 15.999 3 0.297782 0.00224103 0.0833333
42 15.999 3 0.310194 0.00260925 7.50334e-16
43 15.999 3 0.309539 0.00957604 0.0833333
44 15.999 3 0.322604 0.00297576 0.0833333
45 47.867 2 0.335026 0.00332747 0.0833333
46 15.999 3 0.335021 0.00334249 3.00192e-16
47 15.999 3 0.347437 0.00370878 0.0833333
48 15.999 3 0.334368 0.0103076 0.0833333
49 47.867 2 0.359862 0.00405994 0.0833333
50 15.999 3 0.359858 0.0040746 2.91674e-16
51 15.999 3 0.372278 0.0044405 0.0833333
52 15.999 3 0.359206 0.0110376 0.0833333
53 47.867 2 0.384705 0.00479178 0.0833333
54 15.999 3 0.384702 0.0048061 6.3152e-18
55 47.867 2 0.409552 0.00552292 0.0833333
56 15.999 3 0.397124 0.00517173 0.0833333
57 47.867 2 0.434401 0.00625308 0.0833333
58 15.999 3 0.421974 0.00590183 0.0833333
59 15.999 3 0.446823 0.00663141 0.0833333
60 47.867 2 0.459248 0.00698267 0.0833333
61 15.999 3 0.459894 4.29144e-05 0.0833333
62 15.999 3 0.47167 0.0073611 0.0833333
63 47.867 2 0.484092 0.00771278 0.0833333
64 15.999 3 0.48474 0.000772993 0.0833333
65 87.62 1 0.49716 0.00111519 4.50288e-16
66 15.999 3 0.496514 0.00809151 0.0833333
67 47.867 2 0.508933 0.00844398 0.0833333
68 15.999 3 0.509583 0.0015038 0.0833333
69 87.62 1 0.521999 0.00184633 4.50288e-16
70 47.867 2 0.533769 0.0091762 0.0833333
71 15.999 3 0.521354 0.00882334 0.0833333
72 15.999 3 0.534422 0.00223562 0.0833333
73 87.62 1 0.546833 0.00257851 3.00192e-16
74 47.867 2 0.558602 0.00990884 0.0833333
75 15.999 3 0.546189 0.00955634 0.0833333
76 15.999 3 0.559257 0.00296835 0.0833333
77 15.999 3 0.571025 0.0102892 0.0833333
78 47.867 2 0.583437 0.0106415 0.0833333
79 15.999 3 0.584092 0.00370145 0.0833333
80 15.999 3 0.583442 0.0106553 0
81 15.999 3 0.59586 0.0110223 0.0833333
82 47.867 2 0.608271 0.0113743 0.0833333
83 15.999 3 0.608927 0.0044351 0.0833333
84 15.999 3 0.608277 0.0113887 9.00576e-16
85 87.62 1 0.621334 0.00477721 0
86 15.999 3 0.633762 0.00516947 0.0833333
87 15.999 3 0.6586 0.0059039 0.0833333
88 15.999 3 0.68344 0.00663949 0.0833333
89 15.999 3 0.69651 5.12045e-05 0.0833333
90 15.999 3 0.708279 0.00737535 0.0833333
91 47.867 2 0.708922 0.00040277 0.0833333
92 15.999 3 0.721348 0.000785429 0.0833333
93 47.867 2 0.733759 0.00113566 0.0833333
94 15.999 3 0.746184 0.00151809 0.0833333
95 15.999 3 0.733116 0.00811047 0.0833333
96 47.867 2 0.758591 0.0018667 0.0833333
97 15.999 3 0.758597 0.00188467 6.00531e-16
98 15.999 3 0.757947 0.00884562 0.0833333
99 47.867 2 0.783412 0.00259684 0.0833333
100 15.999 3 0.771011 0.00224874 0.0833333
101 15.999 3 0.782764 0.00958142 0.0833333
102 47.867 2 0.808214 0.00333165 0.0833333
103 15.999 3 0.795823 0.00298074 0.0833333
104 15.999 3 0.808215 0.00334984 1.08313e-15
105 15.999 3 0.807561 0.0103231 0.0833333
106 15.999 3 0.820608 0.00372289 0.0833333
107 15.999 3 0.832322 0.011079 0.0833333
108 47.867 2 0.83298 0.00407878 0.0833333
109 15.999 3 0.845346 0.0044837 0.0833333
110 87.62 1 0.844675 0.011429 4.50288e-16
111 47.867 2 0.857693 0.004853 0.0833333
112 15.999 3 0.870026 0.00528442 0.0833333
113 47.867 2 0.882345 0.00567224 0.0833333
114 15.999 3 0.882337 0.0056775 4.50288e-16
115 15.999 3 0.894643 0.00614375 0.0833333
116 47.867 2 0.90696 0.00653808 0.0833333
117 15.999 3 0.906965 0.00653476 7.25513e-16
118 47.867 2 0.931677 0.00740871 0.0833333
119 15.999 3 0.919273 0.00702518 0.0833333
120 15.999 3 0.931986 0.000533899 0.0833333
121 47.867 2 0.956833 0.00803915 0.0833333
122 15.999 3 0.944151 0.00789134 0.0833333
123 15.999 3 0.957024 0.00807523 1.25276e-16
124 15.999 3 0.956453 0.001368 0.0833333
125 15.999 3 0.969908 0.00804718 0.0833333
126 47.867 2 0.983276 0.00814962 0.0833333
127 15.999 3 0.983242 0.00146028 0.0833333
128 15.999 3 0.99611 0.00812207 0.0833333
129 47.867 2 0.00773885 0.0221428 0.0833333
130 15.999 3 0.0083261 0.0152394 0.0833333
131 15.999 3 0.00772082 0.0221675 6.00531e-16
132 15.999 3 0.0203881 0.0224131 0.0833333
133 87.62 1 0.0209995 0.0154227 0
134 47.867 2 0.033048 0.0226544 0.0833333
135 15.999 3 0.0337184 0.0157768 0.0833333
136 87.62 1 0.0463509 0.016034 3.00192e-16
137 15.999 3 0.0457173 0.0229792 0.0833333
138 15.999 3 0.0590401 0.0163886 0.0833333
139 15.999 3 0.0842846 0.0170132 0.0833333
140 15.999 3 0.109412 0.0176603 0.0833333
141 15.999 3 0.134439 0.0183464 0.0833333
142 47.867 2 0.159977 0.0121142 0.0833333
143 15.999 3 0.147514 0.0117806 0.0833333
144 15.999 3 0.15936 0.0190653 0.0833333
145 47.867 2 0.184843 0.0128354 0.0833333
146 15.999 3 0.17241 0.0124908 0.0833333
147 15.999 3 0.184831 0.0128535 3.00192e-16
148 15.999 3 0.184208 0.0198034 0.0833333
149 15.999 3 0.197252 0.0132185 0.0833333
150 47.867 2 0.209668 0.0135699 0.0833333
151 15.999 3 0.222063 0.0139564 0.0833333
152 15.999 3 0.209015 0.0205496 0.0833333
153 87.62 1 0.221427 0.0208915 4.95229e-16
154 47.867 2 0.234472 0.0143104 0.0833333
155 15.999 3 0.234464 0.014329 0
156 15.999 3 0.246863 0.0146974 0.0833333
157 15.999 3 0.233808 0.0212961 0.0833333
158 87.62 1 0.246221 0.0216368 0
159 47.867 2 0.259272 0.0150509 0.0833333
160 15.999 3 0.258603 0.0220384 0.0833333
161 47.867 2 0.284078 0.0157887 0.0833333
162 15.999 3 0.271665 0.0154369 0.0833333
163 15.999 3 0.284072 0.0158055 7.50334e-16
164 15.999 3 0.28341 0.0227749 0.0833333
165 47.867 2 0.308896 0.0165221 0.0833333
166 15.999 3 0.296477 0.0161723 0.0833333
167 15.999 3 0.30889 0.0165381 3.00192e-16
168 15.999 3 0.321301 0.0169035 0.0833333
169 47.867 2 0.333725 0.017252 0.0833333
170 15.999 3 0.346136 0.0176319 0.0833333
171 47.867 2 0.358564 0.0179804 0.0833333
172 15.999 3 0.37098 0.0183596 0.0833333
173 47.867 2 0.383409 0.0187086 0.0833333
174 15.999 3 0.384051 0.0117671 0.0833333
175 15.999 3 0.383406 0.018723 2.50111e-16
176 15.999 3 0.395829 0.0190872 0.0833333
177 47.867 2 0.408258 0.0194364 0.0833333
178 15.999 3 0.408901 0.0124961 0.0833333
179 15.999 3 0.408255 0.0194507 0
180 47.867 2 0.433107 0.0201646 0.0833333
181 15.999 3 0.420679 0.0198145 0.0833333
182 15.999 3 0.433752 0.0132247 0.0833333
183 47.867 2 0.457954 0.0208936 0.0833333
184 15.999 3 0.445529 0.020543 0.0833333
185 15.999 3 0.4586 0.0139538 0.0833333
186 15.999 3 0.470375 0.0212723 0.0833333
187 47.867 2 0.482796 0.0216238 0.0833333
188 15.999 3 0.483444 0.0146838 0.0833333
189 15.999 3 0.482796 0.0216375 4.42945e-16
190 15.999 3 0.495216 0.0220031 0.0833333
191 47.867 2 0.507634 0.0223555 0.0833333
192 15.999 3 0.508285 0.0154152 0.0833333
193 87.62 1 0.520699 0.0157575 6.46206e-18
194 15.999 3 0.520054 0.0227358 0.0833333
195 15.999 3 0.533122 0.016148 0.0833333
196 15.999 3 0.557956 0.016881 0.0833333
197 15.999 3 0.582792 0.0176136 0.0833333
198 15.999 3 0.620695 0.0117557 0.0833333
199 15.999 3 0.607627 0.0183464 0.0833333
200 47.867 2 0.633106 0.0121074 0.0833333
201 15.999 3 0.645533 0.012489 0.0833333
202 15.999 3 0.632463 0.0190794 0.0833333
203 87.62 1 0.64487 0.0194183 3.02689e-16
204 47.867 2 0.657944 0.0128403 0.0833333
205 15.999 3 0.657301 0.0198121 0.0833333
206 47.867 2 0.682782 0.0135748 0.0833333
207 15.999 3 0.670371 0.0132232 0.0833333
208 15.999 3 0.68279 0.013591 3.00192e-16
209 87.62 1 0.669707 0.0201505 2.53048e-16
210 15.999 3 0.682139 0.0205469 0.0833333
211 47.867 2 0.707621 0.0143103 0.0833333
212 15.999 3 0.69521 0.0139591 0.0833333
213 15.999 3 0.707629 0.0143271 2.88443e-16
214 87.62 1 0.694544 0.0208852 4.50288e-16
215 15.999 3 0.706976 0.0212835 0.0833333
216 15.999 3 0.720047 0.0146953 0.0833333
217 87.62 1 0.71938 0.021621 1.50096e-16
218 47.867 2 0.732455 0.0150459 0.0833333
219 15.999 3 0.74488 0.0154324 0.0833333
220 15.999 3 0.731811 0.022022 0.0833333
221 47.867 2 0.757284 0.0157834 0.0833333
222 15.999 3 0.769701 0.016172 0.0833333
223 15.999 3 0.756639 0.0227635 0.0833333
224 47.867 2 0.782098 0.0165224 0.0833333
225 15.999 3 0.782102 0.0165412 3.07682e-16
226 47.867 2 0.806891 0.0172677 0.0833333
227 15.999 3 0.794505 0.0169149 0.0833333
228 47.867 2 0.831657 0.018026 0.0833333
229 15.999 3 0.819282 0.0176683 0.0833333
230 15.999 3 0.844033 0.0184393 0.0833333
231 47.867 2 0.8564 0.0188016 0.0833333
232 15.999 3 0.857039 0.0118586 0.0833333
233 87.62 1 0.869376 0.0122239 1.51712e-16
234 15.999 3 0.868769 0.0192292 0.0833333
235 47.867 2 0.881152 0.0195923 0.0833333
236 15.999 3 0.881717 0.0126703 0.0833333
237 15.999 3 0.881164 0.0196037 6.38129e-16
238 87.62 1 0.894072 0.0130495 3.66281e-16
239 15.999 3 0.893548 0.0200255 0.0833333
240 47.867 2 0.905994 0.0203726 0.0833333
241 15.999 3 0.90642 0.0134989 0.0833333
242 15.999 3 0.906027 0.0203832 7.80147e-16
243 47.867 2 0.931085 0.0210488 0.0833333
244 15.999 3 0.918488 0.0207826 0.0833333
245 15.999 3 0.931253 0.0142671 0.0833333
246 47.867 2 0.956657 0.0215011 0.0833333
247 15.999 3 0.943823 0.0212988 0.0833333
248 15.999 3 0.956855 0.0147664 0.0833333
249 15.999 3 0.956668 0.0215546 1.14246e-15
250 15.999 3 0.969508 0.0216191 0.0833333
251 47.867 2 0.982318 0.0217806 0.0833333
252 15.999 3 0.982826 0.0149501 0.0833333
253 87.62 1 0.995675 0.0149967 4.1225e-16
254 15.999 3 0.995052 0.0219728 0.0833333
255 15.999 3 0.00716108 0.0291024 0.0833333
256 15.999 3 0.0324453 0.0295928 0.0833333
257 47.867 2 0.0583768 0.0232472 0.0833333
258 15.999 3 0.058368 0.0232638 6.75579e-18
259 15.999 3 0.0578043 0.0301473 0.0833333
260 15.999 3 0.0710262 0.0235839 0.0833333
261 87.62 1 0.0704496 0.0304068 0
262 15.999 3 0.0831003 0.0307616 0.0833333
263 47.867 2 0.0836529 0.0238698 0.0833333
264 15.999 3 0.0962417 0.024221 0.0833333
265 87.62 1 0.0956821 0.031052 0
266 47.867 2 0.108805 0.0245289 0.0833333
267 15.999 3 0.121325 0.0248952 0.0833333
268 15.999 3 0.108256 0.0314371 0.0833333
269 47.867 2 0.133825 0.0252346 0.0833333
270 15.999 3 0.133803 0.025254 2.12367e-16
271 15.999 3 0.133235 0.0321694 0.0833333
272 87.62 1 0.145682 0.0325123 3.00192e-16
273 15.999 3 0.146283 0.0256198 0.0833333
274 47.867 2 0.158732 0.0259756 0.0833333
275 15.999 3 0.158715 0.0259973 9.10563e-16
276 15.999 3 0.158104 0.0329356 0.0833333
277 47.867 2 0.183567 0.0267311 0.0833333
278 15.999 3 0.171149 0.0263687 0.0833333
279 15.999 3 0.182907 0.0337094 0.0833333
280 15.999 3 0.195959 0.0271279 0.0833333
281 15.999 3 0.207688 0.0344767 0.0833333
282 47.867 2 0.208365 0.0274891 0.0833333
283 15.999 3 0.208355 0.02751 3.38965e-16
284 15.999 3 0.22075 0.0278841 0.0833333
285 47.867 2 0.233155 0.0282413 0.0833333
286 15.999 3 0.233147 0.0282612 0
287 15.999 3 0.245542 0.0286323 0.0833333
288 47.867 2 0.257951 0.0289855 0.0833333
289 15.999 3 0.270343 0.0293722 0.0833333
290 47.867 2 0.282759 0.0297214 0.0833333
291 47.867 2 0.307582 0.03045 0.0833333
292 15.999 3 0.29516 0.0301039 0.0833333
293 15.999 3 0.30823 0.0235054 0.0833333
294 47.867 2 0.332418 0.0311751 0.0833333
295 15.999 3 0.31999 0.0308297 0.0833333
296 15.999 3 0.333062 0.0242323 0.0833333
297 15.999 3 0.344831 0.0315535 0.0833333
298 47.867 2 0.357262 0.0318992 0.0833333
299 15.999 3 0.357905 0.0249579 0.0833333
300 15.999 3 0.36968 0.0322773 0.0833333
301 47.867 2 0.382112 0.032624 0.0833333
302 15.999 3 0.382754 0.0256836 0.0833333
303 15.999 3 0.382107 0.0326386 0
304 15.999 3 0.394531 0.0330019 0.0833333
305 47.867 2 0.406962 0.0333496 0.0833333
306 15.999 3 0.407606 0.0264098 0.0833333
307 87.62 1 0.420037 0.0267483 0
308 47.867 2 0.431811 0.0340768 0.0833333
309 15.999 3 0.419383 0.0337274 0.0833333
310 15.999 3 0.432456 0.0271369 0.0833333
311 15.999 3 0.431809 0.0340908 0
312 87.62 1 0.444884 0.0274764 0
313 15.999 3 0.444232 0.0344552 0.0833333
314 15.999 3 0.457304 0.0278654 0.0833333
315 15.999 3 0.482147 0.0285957 0.0833333
316 87.62 1 0.494565 0.0289373 0
317 15.999 3 0.506986 0.0293277 0.0833333
318 47.867 2 0.532469 0.0230883 0.0833333
319 15.999 3 0.531822 0.0300606 0.0833333
320 47.867 2 0.557303 0.0238209 0.0833333
321 15.999 3 0.54489 0.0234688 0.0833333
322 15.999 3 0.556658 0.0307933 0.0833333
323 47.867 2 0.582139 0.0245528 0.0833333
324 15.999 3 0.569726 0.0242013 0.0833333
325 15.999 3 0.582144 0.0245672 6.00531e-16
326 15.999 3 0.581496 0.0315254 0.0833333
327 15.999 3 0.594563 0.0249335 0.0833333
328 47.867 2 0.606973 0.0252845 0.0833333
329 15.999 3 0.60698 0.0252998 1.50096e-16
330 15.999 3 0.619398 0.0256656 0.0833333
331 15.999 3 0.606331 0.0322573 0.0833333
332 47.867 2 0.631808 0.0260163 0.0833333
333 15.999 3 0.644234 0.0263977 0.0833333
334 15.999 3 0.631166 0.0329887 0.0833333
335 47.867 2 0.656643 0.0267476 0.0833333
336 15.999 3 0.655999 0.0337204 0.0833333
337 47.867 2 0.681479 0.027481 0.0833333
338 15.999 3 0.66907 0.0271305 0.0833333
339 87.62 1 0.668402 0.0340572 0
340 15.999 3 0.680834 0.0344544 0.0833333
341 47.867 2 0.706314 0.028217 0.0833333
342 15.999 3 0.693907 0.0278661 0.0833333
343 15.999 3 0.718742 0.0286044 0.0833333
344 47.867 2 0.731147 0.028956 0.0833333
345 15.999 3 0.731156 0.0289745 9.00576e-16
346 15.999 3 0.743572 0.0293469 0.0833333
347 47.867 2 0.755975 0.0296985 0.0833333
348 15.999 3 0.755983 0.0297174 3.89192e-17
349 15.999 3 0.768394 0.0300923 0.0833333
350 47.867 2 0.780792 0.0304443 0.0833333
351 15.999 3 0.781454 0.0235076 0.0833333
352 87.62 1 0.793839 0.0238454 0
353 47.867 2 0.805595 0.0311935 0.0833333
354 15.999 3 0.793203 0.0308417 0.0833333
355 15.999 3 0.806248 0.0242576 0.0833333
356 87.62 1 0.818626 0.0245977 6.3152e-17
357 47.867 2 0.830394 0.0319467 0.0833333
358 15.999 3 0.818001 0.0315965 0.0833333
359 15.999 3 0.831023 0.0250164 0.0833333
360 15.999 3 0.842801 0.0323538 0.0833333
361 47.867 2 0.855207 0.0326995 0.0833333
362 15.999 3 0.855788 0.0257832 0.0833333
363 15.999 3 0.855221 0.0327174 6.48115e-16
364 15.999 3 0.867634 0.0331017 0.0833333
365 47.867 2 0.880081 0.0334311 0.0833333
366 15.999 3 0.880584 0.0265461 0.0833333
367 15.999 3 0.892565 0.0338084 0.0833333
368 47.867 2 0.905095 0.0341061 0.0833333
369 15.999 3 0.9055 0.0272714 0.0833333
370 15.999 3 0.917703 0.0344236 0.0833333
371 15.999 3 0.930737 0.0278789 0.0833333
372 87.62 1 0.943506 0.0280717 3.55854e-16
373 15.999 3 0.956274 0.0283232 0.0833333
374 15.999 3 0.981789 0.028688 0.0833333
375 87.62 1 0.994491 0.0288303 4.13572e-16
376 47.867 2 0.00656508 0.0359889 0.0833333
377 15.999 3 0.019224 0.0362651 0.0833333
378 15.999 3 0.00597663 0.0429283 0.0833333
379 47.867 2 0.0319076 0.0364594 0.0833333
380 15.999 3 0.0314025 0.043367 0.0833333
381 47.867 2 0.0572698 0.0369873 0.0833333
382 15.999 3 0.0445829 0.0367497 0.0833333
383 15.999 3 0.0568104 0.0438631 0.0833333
384 47.867 2 0.0825695 0.0376009 0.0833333
385 15.999 3 0.0699319 0.0373154 0.0833333
386 15.999 3 0.0821256 0.0444844 0.0833333
387 15.999 3 0.0951467 0.0379591 0.0833333
388 47.867 2 0.107684 0.0383023 0.0833333
389 15.999 3 0.120167 0.038694 0.0833333
390 15.999 3 0.107161 0.0452232 0.0833333
391 47.867 2 0.132627 0.0390655 0.0833333
392 15.999 3 0.132605 0.0390922 0
393 15.999 3 0.145046 0.0394733 0.0833333
394 47.867 2 0.157459 0.0398561 0.0833333
395 15.999 3 0.157445 0.0398839 0
396 47.867 2 0.182244 0.0406463 0.0833333
397 15.999 3 0.169846 0.0402691 0.0833333
398 47.867 2 0.20702 0.0414208 0.0833333
399 15.999 3 0.194622 0.0410546 0.0833333
400 15.999 3 0.207012 0.0414434 3.00192e-16
401 15.999 3 0.2194 0.0418209 0.0833333
402 47.867 2 0.231807 0.0421785 0.0833333
403 15.999 3 0.232472 0.035232 0.0833333
404 15.999 3 0.244194 0.0425716 0.0833333
405 47.867 2 0.256608 0.0429222 0.0833333
406 15.999 3 0.257269 0.0359758 0.0833333
407 87.62 1 0.269692 0.0363123 0
408 15.999 3 0.269005 0.0433078 0.0833333
409 47.867 2 0.281428 0.0436523 0.0833333
410 15.999 3 0.282082 0.0367082 0.0833333
411 15.999 3 0.28142 0.0436705 6.00531e-16
412 47.867 2 0.306263 0.0443748 0.0833333
413 15.999 3 0.293833 0.044033 0.0833333
414 15.999 3 0.306912 0.0374328 0.0833333
415 47.867 2 0.331108 0.0450949 0.0833333
416 15.999 3 0.318675 0.0447528 0.0833333
417 15.999 3 0.331753 0.0381546 0.0833333
418 15.999 3 0.343524 0.0454721 0.0833333
419 47.867 2 0.355959 0.0458154 0.0833333
420 15.999 3 0.356602 0.038876 0.0833333
421 87.62 1 0.369039 0.0392104 0
422 15.999 3 0.381455 0.0395988 0.0833333
423 15.999 3 0.406308 0.0403233 0.0833333
424 87.62 1 0.41874 0.0406609 1.50096e-16
425 15.999 3 0.431159 0.0410497 0.0833333
426 47.867 2 0.456657 0.0348054 0.0833333
427 15.999 3 0.456656 0.0348193 4.50288e-16
428 87.62 1 0.443586 0.0413886 0
429 15.999 3 0.456005 0.0417781 0.0833333
430 15.999 3 0.469077 0.0351845 0.0833333
431 47.867 2 0.481497 0.035536 0.0833333
432 15.999 3 0.493917 0.0359158 0.0833333
433 15.999 3 0.480846 0.0425086 0.0833333
434 47.867 2 0.506334 0.0362681 0.0833333
435 15.999 3 0.506336 0.0362819 2.57014e-16
436 15.999 3 0.518754 0.0366487 0.0833333
437 15.999 3 0.505685 0.0432407 0.0833333
438 47.867 2 0.531169 0.0370007 0.0833333
439 15.999 3 0.531173 0.0370147 4.50288e-16
440 15.999 3 0.530522 0.0439732 0.0833333
441 47.867 2 0.556005 0.037733 0.0833333
442 15.999 3 0.543591 0.0373811 0.0833333
443 15.999 3 0.555361 0.0447057 0.0833333
444 47.867 2 0.580842 0.0384643 0.0833333
445 15.999 3 0.56843 0.0381136 0.0833333
446 87.62 1 0.56777 0.0450457 3.00192e-16
447 15.999 3 0.580199 0.0454374 0.0833333
448 15.999 3 0.593267 0.038845 0.0833333
449 87.62 1 0.592605 0.0457763 1.50096e-16
450 47.867 2 0.605676 0.0391953 0.0833333
451 15.999 3 0.605684 0.0392108 0
452 15.999 3 0.618101 0.0395758 0.0833333
453 47.867 2 0.630509 0.0399254 0.0833333
454 15.999 3 0.642935 0.0403066 0.0833333
455 47.867 2 0.65534 0.0406559 0.0833333
456 47.867 2 0.680171 0.0413883 0.0833333
457 15.999 3 0.667766 0.0410389 0.0833333
458 15.999 3 0.680182 0.0414061 1.29682e-16
459 47.867 2 0.705004 0.0421244 0.0833333
460 15.999 3 0.692599 0.0417743 0.0833333
461 15.999 3 0.70567 0.0351917 0.0833333
462 15.999 3 0.705015 0.0421427 4.73052e-16
463 15.999 3 0.717432 0.0425139 0.0833333
464 47.867 2 0.729837 0.0428648 0.0833333
465 15.999 3 0.730502 0.0359329 0.0833333
466 87.62 1 0.742901 0.0362701 4.50288e-16
467 15.999 3 0.742264 0.0432575 0.0833333
468 47.867 2 0.754669 0.0436089 0.0833333
469 15.999 3 0.755332 0.036678 0.0833333
470 15.999 3 0.767095 0.0440053 0.0833333
471 47.867 2 0.779499 0.0443554 0.0833333
472 15.999 3 0.780152 0.0374265 0.0833333
473 47.867 2 0.804333 0.0451006 0.0833333
474 15.999 3 0.791925 0.0447543 0.0833333
475 15.999 3 0.804966 0.038176 0.0833333
476 87.62 1 0.817363 0.0385098 0
477 47.867 2 0.829182 0.0458374 0.0833333
478 15.999 3 0.816763 0.0454976 0.0833333
479 15.999 3 0.829786 0.0389233 0.0833333
480 15.999 3 0.854628 0.0396595 0.0833333
481 15.999 3 0.879546 0.0403629 0.0833333
482 87.62 1 0.892064 0.0406456 6.00531e-16
483 15.999 3 0.904596 0.0409944 0.0833333
484 47.867 2 0.930363 0.034677 0.0833333
485 15.999 3 0.93039 0.034715 5.86873e-16
486 15.999 3 0.929878 0.0415432 0.0833333
487 47.867 2 0.955796 0.0351383 0.0833333
488 15.999 3 0.943075 0.0349165 0.0833333
489 15.999 3 0.955246 0.0420268 0.0833333
490 15.999 3 0.968524 0.035362 0.0833333
491 47.867 2 0.981227 0.0355535 0.0833333
492 15.999 3 0.98121 0.0355854 2.5907e-16
493 15.999 3 0.993898 0.035793 0.0833333
494 15.999 3 0.980651 0.0424836 0.0833333
495 47.867 2 0.00545384 0.0497876 0.0833333
496 15.999 3 0.00544746 0.0498052 0
497 15.999 3 0.0181698 0.0500296 0.0833333
498 15.999 3 0.00494053 0.0566904 0.0833333
499 87.62 1 0.0177168 0.056834 1.50096e-16
500 47.867 2 0.030929 0.0501889 0.0833333
501 15.999 3 0.0305199 0.0570338 0.0833333
502 47.867 2 0.0564262 0.0506728 0.0833333
503 15.999 3 0.0436865 0.050476 0.0833333
504 47.867 2 0.0816465 0.0513234 0.0833333
505 15.999 3 0.0690689 0.0509901 0.0833333
506 15.999 3 0.094148 0.0517178 0.0833333
507 47.867 2 0.106605 0.0521084 0.0833333
508 15.999 3 0.119006 0.0525327 0.0833333
509 15.999 3 0.132029 0.0460229 0.0833333
510 47.867 2 0.131393 0.052945 0.0833333
511 15.999 3 0.143752 0.0533811 0.0833333
512 47.867 2 0.156126 0.0537801 0.0833333
513 15.999 3 0.156795 0.0468385 0.0833333
514 87.62 1 0.169192 0.0472023 1.78e-16
515 47.867 2 0.180867 0.0545863 0.0833333
516 15.999 3 0.168482 0.0542071 0.0833333
517 15.999 3 0.181549 0.0476393 0.0833333
518 15.999 3 0.180859 0.0546128 4.97873e-17
519 87.62 1 0.193953 0.0479933 1.50096e-16
520 47.867 2 0.205638 0.0553636 0.0833333
521 15.999 3 0.193236 0.0549992 0.0833333
522 15.999 3 0.206318 0.0484163 0.0833333
523 15.999 3 0.21802 0.0557648 0.0833333
524 47.867 2 0.230434 0.0561184 0.0833333
525 15.999 3 0.231108 0.0491724 0.0833333
526 15.999 3 0.242828 0.0565099 0.0833333
527 47.867 2 0.255253 0.0568554 0.0833333
528 15.999 3 0.255916 0.049912 0.0833333
529 15.999 3 0.255243 0.0568751 2.60685e-16
530 15.999 3 0.267657 0.0572382 0.0833333
531 15.999 3 0.280746 0.0506379 0.0833333
532 15.999 3 0.30559 0.051356 0.0833333
533 87.62 1 0.318033 0.0516844 1.20429e-16
534 15.999 3 0.330443 0.0520729 0.0833333
535 87.62 1 0.342884 0.0524033 1.50096e-16
536 15.999 3 0.368377 0.0461925 0.0833333
537 15.999 3 0.355298 0.0527915 0.0833333
538 47.867 2 0.380811 0.0465382 0.0833333
539 15.999 3 0.393231 0.0469155 0.0833333
540 15.999 3 0.380154 0.0535129 0.0833333
541 47.867 2 0.405664 0.047263 0.0833333
542 15.999 3 0.405659 0.0472777 7.50334e-16
543 15.999 3 0.405008 0.0542373 0.0833333
544 47.867 2 0.430512 0.0479898 0.0833333
545 15.999 3 0.418083 0.0476409 0.0833333
546 15.999 3 0.430509 0.048004 2.20738e-16
547 15.999 3 0.429858 0.0549637 0.0833333
548 47.867 2 0.455357 0.0487186 0.0833333
549 15.999 3 0.442932 0.0483683 0.0833333
550 15.999 3 0.455355 0.0487325 9.00576e-16
551 15.999 3 0.454703 0.0556921 0.0833333
552 15.999 3 0.467776 0.0490978 0.0833333
553 47.867 2 0.480196 0.0494493 0.0833333
554 15.999 3 0.480196 0.0494633 1.45543e-16
555 15.999 3 0.492615 0.0498293 0.0833333
556 15.999 3 0.479543 0.0564225 0.0833333
557 47.867 2 0.505032 0.0501813 0.0833333
558 15.999 3 0.505034 0.0501948 7.69573e-16
559 15.999 3 0.517453 0.0505615 0.0833333
560 15.999 3 0.504382 0.057154 0.0833333
561 47.867 2 0.529869 0.0509133 0.0833333
562 47.867 2 0.554706 0.0516451 0.0833333
563 15.999 3 0.542292 0.0512935 0.0833333
564 15.999 3 0.554712 0.0516594 3.00192e-16
565 47.867 2 0.579544 0.0523764 0.0833333
566 15.999 3 0.567132 0.0520258 0.0833333
567 15.999 3 0.579551 0.0523914 0
568 15.999 3 0.59197 0.0527569 0.0833333
569 15.999 3 0.605035 0.0461688 0.0833333
570 47.867 2 0.604378 0.0531069 0.0833333
571 15.999 3 0.616803 0.0534879 0.0833333
572 47.867 2 0.629208 0.0538368 0.0833333
573 15.999 3 0.629867 0.0468995 0.0833333
574 15.999 3 0.641633 0.0542189 0.0833333
575 47.867 2 0.654035 0.0545669 0.0833333
576 15.999 3 0.654698 0.0476307 0.0833333
577 15.999 3 0.654046 0.0545844 7.09358e-17
578 15.999 3 0.666461 0.0549497 0.0833333
579 47.867 2 0.678862 0.0552977 0.0833333
580 15.999 3 0.679527 0.0483635 0.0833333
581 47.867 2 0.703692 0.0560317 0.0833333
582 15.999 3 0.69129 0.055683 0.0833333
583 15.999 3 0.704358 0.0490999 0.0833333
584 47.867 2 0.728526 0.0567704 0.0833333
585 15.999 3 0.716122 0.0564213 0.0833333
586 15.999 3 0.72854 0.0567906 6.27261e-16
587 15.999 3 0.729191 0.0498412 0.0833333
588 15.999 3 0.740959 0.0571633 0.0833333
589 15.999 3 0.754027 0.0505858 0.0833333
590 15.999 3 0.778866 0.0513314 0.0833333
591 15.999 3 0.803715 0.0520728 0.0833333
592 15.999 3 0.828585 0.0528003 0.0833333
593 15.999 3 0.841629 0.0462296 0.0833333
594 15.999 3 0.853508 0.0535063 0.0833333
595 47.867 2 0.854073 0.0465559 0.0833333
596 15.999 3 0.866552 0.0469292 0.0833333
597 47.867 2 0.879037 0.047235 0.0833333
598 15.999 3 0.891573 0.0475735 0.0833333
599 15.999 3 0.878494 0.0541677 0.0833333
600 87.62 1 0.891028 0.0544241 1.50096e-16
601 47.867 2 0.904121 0.0478417 0.0833333
602 15.999 3 0.904143 0.0478801 1.05053e-15
603 15.999 3 0.903596 0.0547647 0.0833333
604 15.999 3 0.916716 0.0481151 0.0833333
605 47.867 2 0.929329 0.048376 0.0833333
606 15.999 3 0.928692 0.0552813 0.0833333
607 47.867 2 0.954676 0.0488746 0.0833333
608 15.999 3 0.942 0.0486551 0.0833333
609 15.999 3 0.954061 0.0557935 0.0833333
610 15.999 3 0.967351 0.0491286 0.0833333
611 87.62 1 0.966712 0.0559931 5.21371e-17
612 47.867 2 0.980024 0.0493531 0.0833333
613 15.999 3 0.979346 0.0562819 0.0833333
614 15.999 3 0.992719 0.0496297 0.0833333
615 47.867 2 0.00438292 0.0634864 0.0833333
616 15.999 3 0.0173444 0.0637664 0.0833333
617 47.867 2 0.0303114 0.0637766 0.0833333
618 15.999 3 0.0302344 0.0637711 0
619 47.867 2 0.0558234 0.0642995 0.0833333
620 15.999 3 0.0431509 0.0639948 0.0833333
621 15.999 3 0.0561697 0.057514 0.0833333
622 15.999 3 0.0557505 0.0643343 4.50288e-16
623 47.867 2 0.0807776 0.065101 0.0833333
624 15.999 3 0.0683382 0.0646986 0.0833333
625 15.999 3 0.0812389 0.0582272 0.0833333
626 15.999 3 0.0931254 0.0655376 0.0833333
627 47.867 2 0.105439 0.0660059 0.0833333
628 15.999 3 0.106065 0.0590715 0.0833333
629 87.62 1 0.118412 0.0594637 0
630 15.999 3 0.11773 0.066481 0.0833333
631 47.867 2 0.13005 0.0669089 0.0833333
632 15.999 3 0.130726 0.0599472 0.0833333
633 15.999 3 0.14236 0.067358 0.0833333
634 47.867 2 0.154716 0.0677534 0.0833333
635 15.999 3 0.155411 0.060791 0.0833333
636 15.999 3 0.154711 0.0677846 0
637 47.867 2 0.179449 0.0685489 0.0833333
638 15.999 3 0.16706 0.0681796 0.0833333
639 15.999 3 0.180142 0.061594 0.0833333
640 15.999 3 0.191821 0.0689579 0.0833333
641 15.999 3 0.204918 0.0623644 0.0833333
642 15.999 3 0.229728 0.0631129 0.0833333
643 87.62 1 0.242165 0.0634451 8.37131e-17
644 15.999 3 0.254559 0.0638438 0.0833333
645 87.62 1 0.267004 0.0641702 1.47012e-16
646 47.867 2 0.28009 0.0575785 0.0833333
647 15.999 3 0.279408 0.0645613 0.0833333
648 47.867 2 0.304942 0.0582946 0.0833333
649 15.999 3 0.292502 0.0579562 0.0833333
650 15.999 3 0.304932 0.0583112 6.10959e-17
651 15.999 3 0.304268 0.0652737 0.0833333
652 47.867 2 0.329798 0.0590105 0.0833333
653 15.999 3 0.317358 0.058671 0.0833333
654 15.999 3 0.329131 0.0659872 0.0833333
655 15.999 3 0.342216 0.059387 0.0833333
656 15.999 3 0.353992 0.066705 0.0833333
657 47.867 2 0.354655 0.0597294 0.0833333
658 15.999 3 0.354646 0.0597451 6.02e-16
659 15.999 3 0.367073 0.0601067 0.0833333
660 47.867 2 0.379511 0.0604518 0.0833333
661 15.999 3 0.379503 0.0604671 6.00531e-16
662 15.999 3 0.391929 0.0608298 0.0833333
663 15.999 3 0.37885 0.0674271 0.0833333
664 47.867 2 0.404362 0.0611774 0.0833333
665 15.999 3 0.403705 0.0681523 0.0833333
666 47.867 2 0.429211 0.0619046 0.0833333
667 15.999 3 0.416781 0.0615556 0.0833333
668 15.999 3 0.428554 0.0688792 0.0833333
669 47.867 2 0.454054 0.0626337 0.0833333
670 15.999 3 0.441629 0.0622833 0.0833333
671 47.867 2 0.478892 0.0633639 0.0833333
672 15.999 3 0.466472 0.0630124 0.0833333
673 15.999 3 0.491311 0.0637438 0.0833333
674 47.867 2 0.503729 0.0640952 0.0833333
675 15.999 3 0.50373 0.0641085 2.19416e-16
676 15.999 3 0.51615 0.0644746 0.0833333
677 47.867 2 0.528566 0.0648263 0.0833333
678 15.999 3 0.52922 0.0578858 0.0833333
679 15.999 3 0.52857 0.0648402 1.50096e-16
680 15.999 3 0.540991 0.0652059 0.0833333
681 47.867 2 0.553404 0.0655575 0.0833333
682 15.999 3 0.554061 0.0586179 0.0833333
683 15.999 3 0.553411 0.065572 4.50288e-16
684 47.867 2 0.578243 0.0662896 0.0833333
685 15.999 3 0.565832 0.0659388 0.0833333
686 15.999 3 0.578901 0.0593502 0.0833333
687 47.867 2 0.603076 0.0670208 0.0833333
688 15.999 3 0.59067 0.0666704 0.0833333
689 15.999 3 0.603737 0.0600817 0.0833333
690 15.999 3 0.603086 0.0670371 0
691 15.999 3 0.615502 0.0674025 0.0833333
692 47.867 2 0.627904 0.0677518 0.0833333
693 15.999 3 0.628566 0.060813 0.0833333
694 15.999 3 0.64033 0.0681342 0.0833333
695 47.867 2 0.652729 0.0684815 0.0833333
696 15.999 3 0.653393 0.061544 0.0833333
697 15.999 3 0.652741 0.0684995 4.72905e-17
698 15.999 3 0.665156 0.0688645 0.0833333
699 15.999 3 0.67822 0.0622754 0.0833333
700 15.999 3 0.703049 0.063009 0.0833333
701 15.999 3 0.727883 0.0637466 0.0833333
702 87.62 1 0.740283 0.0640774 1.50096e-16
703 47.867 2 0.753367 0.0575115 0.0833333
704 15.999 3 0.765804 0.0579056 0.0833333
705 15.999 3 0.752726 0.0644852 0.0833333
706 47.867 2 0.778217 0.0582516 0.0833333
707 15.999 3 0.790663 0.0586458 0.0833333
708 15.999 3 0.777587 0.0652212 0.0833333
709 47.867 2 0.803088 0.0589853 0.0833333
710 15.999 3 0.802473 0.0659495 0.0833333
711 47.867 2 0.827987 0.0597024 0.0833333
712 15.999 3 0.815547 0.0593749 0.0833333