LAMMPS (19 Nov 2024)
OMP_NUM_THREADS environment is not set. Defaulting to 1 thread. (src/comm.cpp:99)
  using 1 OpenMP thread(s) per MPI task
<<<<<<< HEAD
Open of file C:\Users\PanGroupWorkstation\Desktop\LAMMPS USER-REBOMOS Plugin 15Jun2023-MSMPI\rebomosplugin.so failed: 
Loaded 0 plugins from C:\Users\PanGroupWorkstation\Desktop\LAMMPS USER-REBOMOS Plugin 15Jun2023-MSMPI
Loaded 1 plugins from C:\Users\PanGroupWorkstation\AppData\Local\LAMMPS 64-bit 17Apr2024\plugins
# input file for producing initial structure
=======
Loaded 1 plugins from C:\Users\raven\AppData\Local\LAMMPS 64-bit 19Nov2024\plugins
# input file for producing initial structure without relaxation
>>>>>>> bd84377168056d2a54aaed404a6b8127acba4d5b

# initial settings
units metal
dimension 3
boundary p p p
atom_style charge
# atom_modify map array

# variable size equal 20         # model size
# variable latparam equal 3.50   # initial lattice parameter

<<<<<<< HEAD
# lattice         fcc ${latparam}
# region          box block 0 ${size} 0 ${size} 0 ${size}
# create_box      3 box
# create_atoms    1 box
# substitute one type of atom with another type of atom, can be used to create multi-components system

# variables
variable cutoff equal 1.25
variable angle equal 0.34

# read data
read_data  SrTiO3_0.5_0.txt #../../../initial_structure/additional_data/SrTiO3_2_0.34.data
Reading data file ...
  orthogonal box = (0 -47.504091 0) to (237.52045 47.504091 7.89)
  1 by 1 by 1 MPI processor grid
  reading atoms ...
  13878 atoms
  read_data CPU = 0.143 seconds
=======
# variables
variable latparam equal 3.945
variable degree equal 6
variable scale equal sqrt(145)
variable nx equal 2
variable ny equal 3
variable nz equal 6
variable pi equal 3.14159265
variable x_scale equal v_latparam/tan(v_degree/2*v_pi/180)

variable xmin equal 0
variable xmax equal "v_x_scale*v_nx + 2*v_latparam"
variable ymin equal "-1*v_ny*v_scale*v_latparam"
variable ymax equal "v_ny*v_scale*v_latparam"
variable zmin equal 0
variable zmax equal "v_nz*v_latparam"

variable xcenter equal "(v_xmin+v_xmax)/2"
variable ycenter equal 0
variable zcenter equal "(v_zmin+v_zmax)/2"

variable disp_x equal "v_latparam*v_scale*0.0"
variable disp_z equal "v_latparam*0.0"
# print "${disp}"

region whole block ${xmin} ${xmax} ${ymin} ${ymax} ${zmin} ${zmax} units box
region whole block 0 ${xmax} ${ymin} ${ymax} ${zmin} ${zmax} units box
region whole block 0 158.440168638519 ${ymin} ${ymax} ${zmin} ${zmax} units box
region whole block 0 158.440168638519 -142.512271840007 ${ymax} ${zmin} ${zmax} units box
region whole block 0 158.440168638519 -142.512271840007 142.512271840007 ${zmin} ${zmax} units box
region whole block 0 158.440168638519 -142.512271840007 142.512271840007 0 ${zmax} units box
region whole block 0 158.440168638519 -142.512271840007 142.512271840007 0 23.67 units box
create_box 3 whole
Created orthogonal box = (0 -142.51227 0) to (158.44017 142.51227 23.67)
  1 by 1 by 1 MPI processor grid

region lower block INF INF ${ymin} ${ycenter} INF INF units box
region lower block INF INF -142.512271840007 ${ycenter} INF INF units box
region lower block INF INF -142.512271840007 0 INF INF units box

lattice custom 1         orient x 210 -11 0 orient y 11 210 0 orient z 0 0 1         a1 ${latparam} 0 0 a2 0 ${latparam} 0 a3 0 0 ${latparam}         basis 0 0 0         basis 0.5 0.5 0.5         basis 0.0 0.5 0.5         basis 0.5 0.0 0.5         basis 0.5 0.5 0.0
lattice custom 1         orient x 210 -11 0 orient y 11 210 0 orient z 0 0 1         a1 3.945 0 0 a2 0 ${latparam} 0 a3 0 0 ${latparam}         basis 0 0 0         basis 0.5 0.5 0.5         basis 0.0 0.5 0.5         basis 0.5 0.0 0.5         basis 0.5 0.5 0.0
lattice custom 1         orient x 210 -11 0 orient y 11 210 0 orient z 0 0 1         a1 3.945 0 0 a2 0 3.945 0 a3 0 0 ${latparam}         basis 0 0 0         basis 0.5 0.5 0.5         basis 0.0 0.5 0.5         basis 0.5 0.0 0.5         basis 0.5 0.5 0.0
lattice custom 1         orient x 210 -11 0 orient y 11 210 0 orient z 0 0 1         a1 3.945 0 0 a2 0 3.945 0 a3 0 0 3.945         basis 0 0 0         basis 0.5 0.5 0.5         basis 0.0 0.5 0.5         basis 0.5 0.0 0.5         basis 0.5 0.5 0.0
Lattice spacing in x,y,z = 4.145959 4.145959 3.945

create_atoms 1 region lower                basis 1 1                basis 2 2                basis 3 3                basis 4 3                basis 5 3
Created 43542 atoms
  using lattice units in orthogonal box = (0 -142.51227 0) to (158.44017 142.51227 23.67)
  create_atoms CPU = 0.003 seconds

region upper block INF INF ${ycenter} ${ymax} INF INF units box
region upper block INF INF 0 ${ymax} INF INF units box
region upper block INF INF 0 142.512271840007 INF INF units box

lattice custom 1         orient x 210 11 0 orient y -11 210 0 orient z 0 0 1         a1 ${latparam} 0 0 a2 0 ${latparam} 0 a3 0 0 ${latparam}         basis 0 0 0         basis 0.5 0.5 0.5         basis 0.0 0.5 0.5         basis 0.5 0.0 0.5         basis 0.5 0.5 0.0
lattice custom 1         orient x 210 11 0 orient y -11 210 0 orient z 0 0 1         a1 3.945 0 0 a2 0 ${latparam} 0 a3 0 0 ${latparam}         basis 0 0 0         basis 0.5 0.5 0.5         basis 0.0 0.5 0.5         basis 0.5 0.0 0.5         basis 0.5 0.5 0.0
lattice custom 1         orient x 210 11 0 orient y -11 210 0 orient z 0 0 1         a1 3.945 0 0 a2 0 3.945 0 a3 0 0 ${latparam}         basis 0 0 0         basis 0.5 0.5 0.5         basis 0.0 0.5 0.5         basis 0.5 0.0 0.5         basis 0.5 0.5 0.0
lattice custom 1         orient x 210 11 0 orient y -11 210 0 orient z 0 0 1         a1 3.945 0 0 a2 0 3.945 0 a3 0 0 3.945         basis 0 0 0         basis 0.5 0.5 0.5         basis 0.0 0.5 0.5         basis 0.5 0.0 0.5         basis 0.5 0.5 0.0
Lattice spacing in x,y,z = 4.145959 4.145959 3.945

create_atoms 1 region upper                basis 1 1                basis 2 2                basis 3 3                basis 4 3                basis 5 3
Created 43542 atoms
  using lattice units in orthogonal box = (0 -142.51227 0) to (158.44017 142.51227 23.67)
  create_atoms CPU = 0.004 seconds

# substitute one type of atom with another type of atom, can be used to create multi-components system

group lower region lower
43548 atoms in group lower
group upper region upper
43548 atoms in group upper

displace_atoms lower move ${disp_x} 0 0 units box
displace_atoms lower move 0 0 0 units box
Displacing atoms ...
displace_atoms lower move 0 0 ${disp_z} units box
displace_atoms lower move 0 0 0 units box
Displacing atoms ...

# rotate around y axis
variable angle equal 0 # <angle>
displace_atoms lower rotate ${xcenter} ${ycenter} ${zcenter} 0 1 0 ${angle} # 0.34
displace_atoms lower rotate 79.2200843192595 ${ycenter} ${zcenter} 0 1 0 ${angle} 
displace_atoms lower rotate 79.2200843192595 0 ${zcenter} 0 1 0 ${angle} 
displace_atoms lower rotate 79.2200843192595 0 11.835 0 1 0 ${angle} 
displace_atoms lower rotate 79.2200843192595 0 11.835 0 1 0 0 
Displacing atoms ...
displace_atoms upper rotate ${xcenter} ${ycenter} ${zcenter} 0 1 0 -${angle}
displace_atoms upper rotate 79.2200843192595 ${ycenter} ${zcenter} 0 1 0 -${angle}
displace_atoms upper rotate 79.2200843192595 0 ${zcenter} 0 1 0 -${angle}
displace_atoms upper rotate 79.2200843192595 0 11.835 0 1 0 -${angle}
displace_atoms upper rotate 79.2200843192595 0 11.835 0 1 0 -0
Displacing atoms ...

# read data
# read_data ../../model/bicrystal.lmp
# read_data SrTiO3_npt.data
>>>>>>> bd84377168056d2a54aaed404a6b8127acba4d5b

mass 1 87.62000000    # Sr
mass 2 47.86700000    # Ti
mass 3 15.99900000    # O

<<<<<<< HEAD
# set type 1 charge <Sr_charge>
# set type 2 charge <Ti_charge>
# set type 3 charge <O_charge>
=======
set type 1 charge 1.2
Setting atom values ...
  17436 settings made for charge
set type 2 charge 2.4
Setting atom values ...
  17424 settings made for charge
set type 3 charge -1.2
Setting atom values ...
  52224 settings made for charge
>>>>>>> bd84377168056d2a54aaed404a6b8127acba4d5b

# potential settings (required but not important)

pair_style lj/cut 2.5
pair_coeff * * 1 1

# delete overlap atoms
<<<<<<< HEAD
#variable cutoff equal 1.8
#delete_atoms overlap ${cutoff} all all

compute peratom all pe/atom

variable tcharge equal charge(all)
print "total charge is now ${tcharge}"
total charge is now -1.31034695681742

# minimize energy
# minimize  1e-25 1e-25 20000 20000
thermo 100
thermo_style custom step temp lx ly lz pe pxx pyy pzz press vol

minimize 1e-25 1e-25 20000 20000
PPPMDisp initialization ...
WARNING: System is not charge neutral, net charge = -1.310347 (src/kspace.cpp:327)
Generated 0 of 3 mixed pair_coeff terms from geometric mixing rule
  Coulomb G vector (1/distance)= 0.7475344545693838
  Coulomb grid = 720 288 24
  Coulomb stencil order = 5
  Coulomb estimated absolute RMS force accuracy = 0.00015048751
  Coulomb estimated relative force accuracy = 1.0450779e-05
  using double precision FFTW3
  3d grid and FFT values/proc = 7649915 4976640
Generated 0 of 3 mixed pair_coeff terms from geometric mixing rule
Neighbor list info ...
  update: every = 1 steps, delay = 0 steps, check = yes
  max neighbors/atom: 2000, page size: 100000
  master list distance cutoff = 6.5
  ghost atom cutoff = 6.5
  binsize = 3.25, bins = 74 30 3
  3 neighbor lists, perpetual/occasional/extra = 3 0 0
  (1) pair morse, perpetual
      attributes: half, newton on
      pair build: half/bin/atomonly/newton
      stencil: half/bin/3d
      bin: standard
  (2) pair lj/long/coul/long, perpetual, skip from (1)
      attributes: half, newton on
      pair build: skip
      stencil: none
      bin: none
  (3) pair morse, perpetual, copy from (1)
      attributes: half, newton on
      pair build: copy
      stencil: none
      bin: none
Per MPI rank memory allocation (min/avg/max) = 1186 | 1186 | 1186 Mbytes
   Step          Temp            Lx             Ly             Lz           PotEng          Pxx            Pyy            Pzz           Press          Volume    
         0   0              237.52045      95.008181      7.89          -154185.59      607414.95      709031.22     -13290.574      434385.2       178048.79    
       100   0              237.52045      95.008181      7.89          -168166.9      -19998.474     -32602.055     -25485.628     -26028.719      178048.79    
       114   0              237.52045      95.008181      7.89          -168169.4      -20683.738     -33802.705     -26133.939     -26873.461      178048.79    
Loop time of 331.193 on 1 procs for 114 steps with 13878 atoms

99.8% CPU use with 1 MPI tasks x 1 OpenMP threads

Minimization stats:
  Stopping criterion = linesearch alpha is zero
  Energy initial, next-to-last, final = 
     -154185.587711124  -168169.402155462  -168169.402155462
  Force two-norm initial, final = 53382.003 1.4071865
  Force max component initial, final = 5414.812 0.36692763
  Final line search alpha, max atom move = 3.9345927e-09 1.4437108e-09
  Iterations, force evaluations = 114 240

MPI task timing breakdown:
Section |  min time  |  avg time  |  max time  |%varavg| %total
---------------------------------------------------------------
Pair    | 5.4988     | 5.4988     | 5.4988     |   0.0 |  1.66
Kspace  | 325.39     | 325.39     | 325.39     |   0.0 | 98.25
Neigh   | 0.1162     | 0.1162     | 0.1162     |   0.0 |  0.04
Comm    | 0.07192    | 0.07192    | 0.07192    |   0.0 |  0.02
Output  | 0.000683   | 0.000683   | 0.000683   |   0.0 |  0.00
Modify  | 0          | 0          | 0          |   0.0 |  0.00
Other   |            | 0.1117     |            |       |  0.03

Nlocal:          13878 ave       13878 max       13878 min
Histogram: 1 0 0 0 0 0 0 0 0 0
Nghost:          32796 ave       32796 max       32796 min
Histogram: 1 0 0 0 0 0 0 0 0 0
Neighs:         634758 ave      634758 max      634758 min
Histogram: 1 0 0 0 0 0 0 0 0 0

Total # of neighbors = 634758
Ave neighs/atom = 45.738435
Neighbor list builds = 5
Dangerous builds = 0

# relax box
reset_timestep 0
fix 1 all box/relax aniso 0.0 vmax 0.001
# fix 1 all box/relax aniso 0.0 vmax 0.001 fixedpoint 0 0 0
# fix 1 all box/relax y 0.0 vmax 0.001
#dump 1 all custom 20000 SrTiO3_min.dump.* id type q x y z c_peratom
#dump_modify 1 sort id
min_style cg
minimize  1e-25 1e-25 20000 20000
PPPMDisp initialization ...
Generated 0 of 3 mixed pair_coeff terms from geometric mixing rule
  Coulomb G vector (1/distance)= 0.747534454569354
  Coulomb grid = 720 288 24
  Coulomb stencil order = 5
  Coulomb estimated absolute RMS force accuracy = 0.00015048729
  Coulomb estimated relative force accuracy = 1.0450764e-05
  using double precision FFTW3
  3d grid and FFT values/proc = 7649915 4976640
Generated 0 of 3 mixed pair_coeff terms from geometric mixing rule
WARNING: Energy due to 3 extra global DOFs will be included in minimizer energies
 (src/min.cpp:219)
Per MPI rank memory allocation (min/avg/max) = 1186 | 1186 | 1186 Mbytes
   Step          Temp            Lx             Ly             Lz           PotEng          Pxx            Pyy            Pzz           Press          Volume    
         0   0              237.52045      95.008181      7.89          -168169.4      -20683.738     -33802.705     -26133.939     -26873.461      178048.79    
        17   0              237.39583      93.790355      7.8502797     -168206.49      870.23569     -378.00891      706.249        399.49192      174789.92    
Loop time of 175.081 on 1 procs for 17 steps with 13878 atoms

99.7% CPU use with 1 MPI tasks x 1 OpenMP threads

Minimization stats:
  Stopping criterion = linesearch alpha is zero
  Energy initial, next-to-last, final = 
     -168169.402155462  -168206.487438105  -168206.487438105
  Force two-norm initial, final = 5275.3345 129.64753
  Force max component initial, final = 3756.4716 94.988463
  Final line search alpha, max atom move = 6.0835953e-13 5.7787136e-11
  Iterations, force evaluations = 17 70

MPI task timing breakdown:
Section |  min time  |  avg time  |  max time  |%varavg| %total
---------------------------------------------------------------
Pair    | 1.6616     | 1.6616     | 1.6616     |   0.0 |  0.95
Kspace  | 78.511     | 78.511     | 78.511     |   0.0 | 44.84
Neigh   | 0.05852    | 0.05852    | 0.05852    |   0.0 |  0.03
Comm    | 0.019998   | 0.019998   | 0.019998   |   0.0 |  0.01
Output  | 0          | 0          | 0          |   0.0 |  0.00
Modify  | 0          | 0          | 0          |   0.0 |  0.00
Other   |            | 94.83      |            |       | 54.16

Nlocal:          13878 ave       13878 max       13878 min
Histogram: 1 0 0 0 0 0 0 0 0 0
Nghost:          32853 ave       32853 max       32853 min
Histogram: 1 0 0 0 0 0 0 0 0 0
Neighs:         643506 ave      643506 max      643506 min
Histogram: 1 0 0 0 0 0 0 0 0 0

Total # of neighbors = 643506
Ave neighs/atom = 46.368785
Neighbor list builds = 2
Dangerous builds = 0

write_data SrTiO3_relaxed_${cutoff}_${angle}.data nocoeff
write_data SrTiO3_relaxed_1.25_${angle}.data nocoeff
write_data SrTiO3_relaxed_1.25_0.34.data nocoeff
System init for write_data ...
PPPMDisp initialization ...
Generated 0 of 3 mixed pair_coeff terms from geometric mixing rule
  Coulomb G vector (1/distance)= 0.7467065745150213
  Coulomb grid = 720 288 24
  Coulomb stencil order = 5
  Coulomb estimated absolute RMS force accuracy = 0.00015086641
  Coulomb estimated relative force accuracy = 1.0477092e-05
  using double precision FFTW3
  3d grid and FFT values/proc = 7649915 4976640
Generated 0 of 3 mixed pair_coeff terms from geometric mixing rule
Total wall time: 0:59:55
=======
variable cutoff equal 0.5 # <cutoff>
delete_atoms overlap ${cutoff} lower upper
delete_atoms overlap 0.5 lower upper
System init for delete_atoms ...
Generated 0 of 3 mixed pair_coeff terms from geometric mixing rule
Neighbor list info ...
  update: every = 1 steps, delay = 0 steps, check = yes
  max neighbors/atom: 2000, page size: 100000
  master list distance cutoff = 4.5
  ghost atom cutoff = 4.5
  binsize = 2.25, bins = 71 127 11
  2 neighbor lists, perpetual/occasional/extra = 1 1 0
  (1) command delete_atoms, occasional
      attributes: full, newton on
      pair build: full/bin/atomonly
      stencil: full/bin/3d
      bin: standard
  (2) pair lj/cut, perpetual
      attributes: half, newton on
      pair build: half/bin/atomonly/newton
      stencil: half/bin/3d
      bin: standard
Deleted 180 atoms, new total = 86904

# reset ion charges
group negative type 3
52134 atoms in group negative
group positive subtract all negative
34770 atoms in group positive
variable totalCharge equal charge(all)
variable numofpositive equal count(positive)
variable numofnegative equal count(negative)
variable positiveCharge equal "0.5*v_totalCharge/v_numofpositive"
variable negativeCharge equal "0.5*v_totalCharge/v_numofnegative"
variable charge1 equal "1.2-v_positiveCharge"
variable charge2 equal "2.4-v_positiveCharge"
variable charge3 equal "-1.2-v_negativeCharge"

print "----------charge information------------"
----------charge information------------
print "total charge is now ${totalCharge}"
total charge is now 21.6000000000053
print "positive charge is now ${positiveCharge}"
positive charge is now 0.000310612597066513
print "negative charge is now ${negativeCharge}"
negative charge is now 0.00020715847623437
print "charge1 is now ${charge1}"
charge1 is now 1.19968938740293
print "charge2 is now ${charge2}"
charge2 is now 2.39968938740293
print "charge3 is now ${charge3}"
charge3 is now -1.20020715847623

variable num_of_atoms equal count(all)

print "${cutoff} ${charge1} ${charge2} ${charge3} ${num_of_atoms}" append charge.txt
0.5 1.19968938740293 2.39968938740293 -1.20020715847623 86904

set type 1 charge ${charge1}
set type 1 charge 1.19968938740293
Setting atom values ...
  17388 settings made for charge
set type 2 charge ${charge2}
set type 2 charge 2.39976705395223
Setting atom values ...
  17382 settings made for charge
set type 3 charge ${charge3}
set type 3 charge -1.2001165266425
Setting atom values ...
  52134 settings made for charge

write_data SrTiO3_${cutoff}_${angle}.data nocoeff
write_data SrTiO3_0.5_${angle}.data nocoeff
write_data SrTiO3_0.5_0.data nocoeff
System init for write_data ...
Generated 0 of 3 mixed pair_coeff terms from geometric mixing rule
Neighbor list info ...
  update: every = 1 steps, delay = 0 steps, check = yes
  max neighbors/atom: 2000, page size: 100000
  master list distance cutoff = 4.5
  ghost atom cutoff = 4.5
  binsize = 2.25, bins = 71 127 11
  1 neighbor lists, perpetual/occasional/extra = 1 0 0
  (1) pair lj/cut, perpetual
      attributes: half, newton on
      pair build: half/bin/atomonly/newton
      stencil: half/bin/3d
      bin: standard

# dump 1 all custom 20000 SrTiO3_min_1.8.dump.* id type q x y z
# dump_modify 1 sort id
# min_style cg
# minimize  1e-25 1e-25 20000 20000
Total wall time: 0:00:00
>>>>>>> bd84377168056d2a54aaed404a6b8127acba4d5b
