LAMMPS data file via write_data, version 19 Nov 2024, timestep = 0, units =.1 metal
              
13878 atoms             
3 atom types            
              
0 237.520453066678 xlo xhi           
-47.5040906133356 47.5040906133356 ylo yhi           
0 7.89 zlo zhi           
              
Masses              
              
1 87.62             
2 47.867             
3 15.999             
              
Atoms # charge            
              
1 2 2.40077962577963 194.06277255614208 24.140407438708905 1.9725 0 0 0      
2 3 -1.1996106368251 192.0929730377125 24.037227463934016 1.9725 0 0 0      
3 3 -1.1996106368251 194.06277255614208 24.140407438708905 0.0 0 0 0      
4 2 2.40077962577963 198.00237159300127 24.346767388258684 1.9725 0 0 0      
5 3 -1.1996106368251 196.03257207457165 24.243587413483795 1.9725 0 0 0      
6 3 -1.1996106368251 198.00237159300127 24.346767388258684 0.0 0 0 0      
7 2 2.40077962577963 201.9419706298605 24.553127337808434 1.9725 0 0 0      
8 3 -1.1996106368251 199.9721711114309 24.449947363033573 1.9725 0 0 0      
9 3 -1.1996106368251 201.9419706298605 24.553127337808434 0.0 0 0 0      
10 2 2.40077962577963 205.8815696667196 24.759487287358212 1.9725 0 0 0      
11 3 -1.1996106368251 203.91177014829003 24.656307312583323 1.9725 0 0 0      
12 3 -1.1996106368251 205.8815696667196 24.759487287358212 0.0 0 0 0      
13 2 2.40077962577963 209.82116870357885 24.965847236907962 1.9725 0 0 0      
14 3 -1.1996106368251 207.8513691851492 24.8626672621331 1.9725 0 0 0      
15 3 -1.1996106368251 209.82116870357885 24.965847236907962 0.0 0 0 0      
16 2 2.40077962577963 213.760767740438 25.17220718645774 1.9725 0 0 0      
17 3 -1.1996106368251 211.7909682220084 25.06902721168285 1.9725 0 0 0      
18 3 -1.1996106368251 213.760767740438 25.17220718645774 0.0 0 0 0      
19 2 2.40077962577963 217.70036677729723 25.37856713600752 1.9725 0 0 0      
20 3 -1.1996106368251 215.7305672588676 25.27538716123263 1.9725 0 0 0      
21 3 -1.1996106368251 217.70036677729723 25.37856713600752 0.0 0 0 0      
22 2 2.40077962577963 221.6399658141564 25.58492708555727 1.9725 0 0 0      
23 3 -1.1996106368251 219.6701662957268 25.481747110782408 1.9725 0 0 0      
24 3 -1.1996106368251 221.6399658141564 25.58492708555727 0.0 0 0 0      
25 2 2.40077962577963 225.5795648510156 25.791287035107047 1.9725 0 0 0      
26 3 -1.1996106368251 223.60976533258597 25.688107060332158 1.9725 0 0 0      
27 3 -1.1996106368251 225.5795648510156 25.791287035107047 0.0 0 0 0      
28 2 2.40077962577963 229.51916388787475 25.997646984656797 1.9725 0 0 0      
29 3 -1.1996106368251 227.54936436944516 25.894467009881936 1.9725 0 0 0      
30 3 -1.1996106368251 229.62234386264964 24.02784746622723 1.9725 0 0 0      
31 3 -1.1996106368251 229.51916388787475 25.997646984656797 0.0 0 0 0      
32 1 1.2010395010395 231.5921433810792 24.131027441002118 0.0 0 0 0      
33 2 2.40077962577963 233.45876292473395 26.204006934206575 1.9725 0 0 0      
34 3 -1.1996106368251 231.48896340630432 26.100826959431686 1.9725 0 0 0      
35 3 -1.1996106368251 233.56194289950884 24.234207415777007 1.9725 0 0 0      
36 3 -1.1996106368251 233.45876292473395 26.204006934206575 0.0 0 0 0      
37 1 1.2010395010395 235.5317424179384 24.337387390551868 0.0 0 0 0      
38 2 2.40077962577963 237.3983619615931 26.410366883756353 1.9725 0 0 0      
39 3 -1.1996106368251 235.42856244316351 26.307186908981464 1.9725 0 0 0      
40 3 -1.1996106368251 237.501541936368 24.440567365326757 1.9725 0 0 0      
41 3 -1.1996106368251 237.3983619615931 26.410366883756353 0.0 0 0 0      
42 3 -1.1996106368251 237.3983619615931 116.10190495625045 3.945 0 0 0      
43 2 2.40077962577963 119.0040309062678 24.159167434122537 1.9725 0 0 0      
44 3 -1.1996106368251 117.03423138783825 24.055987459347648 1.9725 0 0 0      
45 3 -1.1996106368251 119.0040309062678 24.159167434122537 0.0 0 0 0      
46 2 2.40077962577963 122.94362994312696 24.365527383672287 1.9725 0 0 0      
47 3 -1.1996106368251 120.97383042469738 24.262347408897426 1.9725 0 0 0      
48 3 -1.1996106368251 122.94362994312696 24.365527383672287 0.0 0 0 0      
49 2 2.40077962577963 126.8832289799862 24.571887333222065 1.9725 0 0 0      
50 3 -1.1996106368251 124.91342946155658 24.468707358447176 1.9725 0 0 0      
51 3 -1.1996106368251 126.8832289799862 24.571887333222065 0.0 0 0 0      
52 2 2.40077962577963 130.8228280168454 24.778247282771815 1.9725 0 0 0      
53 3 -1.1996106368251 128.85302849841577 24.675067307996926 1.9725 0 0 0      
54 3 -1.1996106368251 130.8228280168454 24.778247282771815 0.0 0 0 0      
55 2 2.40077962577963 134.76242705370458 24.984607232321594 1.9725 0 0 0      
56 3 -1.1996106368251 132.79262753527496 24.881427257546704 1.9725 0 0 0      
57 3 -1.1996106368251 134.76242705370458 24.984607232321594 0.0 0 0 0      
58 2 2.40077962577963 138.70202609056372 25.190967181871343 1.9725 0 0 0      
59 3 -1.1996106368251 136.73222657213415 25.087787207096483 1.9725 0 0 0      
60 3 -1.1996106368251 138.70202609056372 25.190967181871343 0.0 0 0 0      
61 2 2.40077962577963 142.6416251274229 25.39732713142112 1.9725 0 0 0      
62 3 -1.1996106368251 140.6718256089933 25.294147156646233 1.9725 0 0 0      
63 3 -1.1996106368251 142.6416251274229 25.39732713142112 0.0 0 0 0      
64 2 2.40077962577963 146.5812241642821 25.6036870809709 1.9725 0 0 0      
65 3 -1.1996106368251 144.61142464585254 25.50050710619601 1.9725 0 0 0      
66 3 -1.1996106368251 146.5812241642821 25.6036870809709 0.0 0 0 0      
67 2 2.40077962577963 150.5208232011413 25.81004703052065 1.9725 0 0 0      
68 3 -1.1996106368251 148.55102368271167 25.70686705574576 1.9725 0 0 0      
69 3 -1.1996106368251 237.29518198681825 114.13210543782083 5.917499999999999 0 0 0      
70 3 -1.1996106368251 150.5208232011413 25.81004703052065 0.0 0 0 0      
71 3 -1.1996106368251 235.42856244316351 116.20508493102534 5.917499999999999 0 0 0      
72 2 2.40077962577963 154.4604222380005 26.01640698007043 1.9725 0 0 0      
73 3 -1.1996106368251 152.49062271957092 25.91322700529554 1.9725 0 0 0      
74 3 -1.1996106368251 154.56360221277538 24.046607461640832 1.9725 0 0 0      
75 3 -1.1996106368251 154.4604222380005 26.01640698007043 0.0 0 0 0      
76 1 1.2010395010395 156.53340173120495 24.14978743641572 0.0 0 0 0      
77 2 2.40077962577963 158.40002127485965 26.222766929620207 1.9725 0 0 0      
78 3 -1.1996106368251 156.43022175643006 26.119586954845317 1.9725 0 0 0      
79 3 -1.1996106368251 158.50320124963451 24.25296741119061 1.9725 0 0 0      
80 3 -1.1996106368251 158.40002127485965 26.222766929620207 0.0 0 0 0      
81 1 1.2010395010395 160.47300076806408 24.35614738596547 0.0 0 0 0      
82 2 2.40077962577963 162.33962031171887 26.429126879169957 1.9725 0 0 0      
83 3 -1.1996106368251 160.36982079328925 26.325946904395067 1.9725 0 0 0      
84 3 -1.1996106368251 162.4428002864937 24.45932736074036 1.9725 0 0 0      
85 3 -1.1996106368251 162.33962031171887 26.429126879169957 0.0 0 0 0      
86 1 1.2010395010395 164.41259980492333 24.56250733551525 0.0 0 0 0      
87 2 2.40077962577963 166.279219348578 26.635486828719706 1.9725 0 0 0      
88 3 -1.1996106368251 164.30941983014844 26.532306853944846 1.9725 0 0 0      
89 3 -1.1996106368251 166.3823993233529 24.66568731029014 1.9725 0 0 0      
90 3 -1.1996106368251 166.279219348578 26.635486828719706 0.0 0 0 0      
91 1 1.2010395010395 168.35219884178247 24.768867285065028 0.0 0 0 0      
92 2 2.40077962577963 170.21881838543726 26.841846778269485 1.9725 0 0 0      
93 3 -1.1996106368251 168.24901886700763 26.738666803494596 1.9725 0 0 0      
94 3 -1.1996106368251 170.3219983602121 24.872047259839917 1.9725 0 0 0      
95 3 -1.1996106368251 170.21881838543726 26.841846778269485 0.0 0 0 0      
96 1 1.2010395010395 172.29179787864166 24.975227234614806 0.0 0 0 0      
97 2 2.40077962577963 174.1584174222964 27.048206727819263 1.9725 0 0 0      
98 3 -1.1996106368251 172.18861790386683 26.945026753044374 1.9725 0 0 0      
99 3 -1.1996106368251 174.26159739707128 25.078407209389667 1.9725 0 0 0      
100 3 -1.1996106368251 174.1584174222964 27.048206727819263 0.0 0 0 0      
101 1 1.2010395010395 176.23139691550085 25.181587184164556 0.0 0 0 0      
102 2 2.40077962577963 178.0980164591556 27.25456667736904 1.9725 0 0 0      
103 3 -1.1996106368251 176.12821694072596 27.151386702594152 1.9725 0 0 0      
104 3 -1.1996106368251 178.20119643393042 25.284767158939417 1.9725 0 0 0      
105 3 -1.1996106368251 178.0980164591556 27.25456667736904 0.0 0 0 0      
106 1 1.2010395010395 180.17099595236004 25.387947133714306 0.0 0 0 0      
107 2 2.40077962577963 182.0376154960148 27.46092662691879 1.9725 0 0 0      
108 3 -1.1996106368251 180.0678159775852 27.357746652143902 1.9725 0 0 0      
109 3 -1.1996106368251 182.14079547078967 25.491127108489195 1.9725 0 0 0      
110 3 -1.1996106368251 182.0376154960148 27.46092662691879 0.0 0 0 0      
111 1 1.2010395010395 184.11059498921924 25.594307083264084 0.0 0 0 0      
112 2 2.40077962577963 185.977214532874 27.66728657646857 1.9725 0 0 0      
113 3 -1.1996106368251 184.00741501444435 27.56410660169368 1.9725 0 0 0      
114 3 -1.1996106368251 186.0803945076488 25.697487058038973 1.9725 0 0 0      
115 3 -1.1996106368251 185.977214532874 27.66728657646857 0.0 0 0 0      
116 1 1.2010395010395 188.0501940260784 25.800667032813863 0.0 0 0 0      
117 2 2.40077962577963 189.9168135697332 27.87364652601832 1.9725 0 0 0      
118 3 -1.1996106368251 187.94701405130357 27.77046655124343 1.9725 0 0 0      
119 3 -1.1996106368251 190.019993544508 25.90384700758875 1.9725 0 0 0      
120 3 -1.1996106368251 189.9168135697332 27.87364652601832 0.0 0 0 0      
121 1 1.2010395010395 191.9897930629376 26.007026982363612 0.0 0 0 0      
122 2 2.40077962577963 193.8564126065923 28.080006475568098 1.9725 0 0 0      
123 3 -1.1996106368251 191.88661308816276 27.97682650079321 1.9725 0 0 0      
124 3 -1.1996106368251 193.9595925813672 26.1102069571385 1.9725 0 0 0      
125 3 -1.1996106368251 193.8564126065923 28.080006475568098 0.0 0 0 0      
126 1 1.2010395010395 195.9293920997968 26.21338693191339 0.0 0 0 0      
127 2 2.40077962577963 197.79601164345155 28.286366425117876 1.9725 0 0 0      
128 3 -1.1996106368251 195.82621212502187 28.183186450342987 1.9725 0 0 0      
129 3 -1.1996106368251 197.8991916182264 26.31656690668828 1.9725 0 0 0      
130 3 -1.1996106368251 197.79601164345155 28.286366425117876 0.0 0 0 0      
131 1 1.2010395010395 199.868991136656 26.41974688146314 0.0 0 0 0      
132 2 2.40077962577963 201.73561068031069 28.492726374667626 1.9725 0 0 0      
133 3 -1.1996106368251 199.76581116188112 28.389546399892737 1.9725 0 0 0      
134 3 -1.1996106368251 201.8387906550856 26.52292685623803 1.9725 0 0 0      
135 3 -1.1996106368251 201.73561068031069 28.492726374667626 0.0 0 0 0      
136 1 1.2010395010395 203.80859017351517 26.62610683101292 0.0 0 0 0      
137 2 2.40077962577963 205.67520971716988 28.699086324217404 1.9725 0 0 0      
138 3 -1.1996106368251 203.70541019874025 28.595906349442515 1.9725 0 0 0      
139 3 -1.1996106368251 205.7783896919447 26.729286805787808 1.9725 0 0 0      
140 3 -1.1996106368251 205.67520971716988 28.699086324217404 0.0 0 0 0      
141 1 1.2010395010395 207.74818921037436 26.832466780562697 0.0 0 0 0      
142 2 2.40077962577963 209.61480875402907 28.905446273767154 1.9725 0 0 0      
143 3 -1.1996106368251 207.6450092355995 28.802266298992265 1.9725 0 0 0      
144 3 -1.1996106368251 209.717988728804 26.935646755337586 1.9725 0 0 0      
145 3 -1.1996106368251 209.61480875402907 28.905446273767154 0.0 0 0 0      
146 1 1.2010395010395 211.68778824723356 27.038826730112447 0.0 0 0 0      
147 2 2.40077962577963 213.55440779088823 29.111806223316933 1.9725 0 0 0      
148 3 -1.1996106368251 211.58460827245864 29.008626248542043 1.9725 0 0 0      
149 3 -1.1996106368251 213.6575877656631 27.142006704887336 1.9725 0 0 0      
150 3 -1.1996106368251 213.55440779088823 29.111806223316933 0.0 0 0 0      
151 1 1.2010395010395 215.62738728409272 27.245186679662226 0.0 0 0 0      
152 2 2.40077962577963 217.49400682774743 29.318166172866682 1.9725 0 0 0      
153 3 -1.1996106368251 215.5242073093179 29.21498619809182 1.9725 0 0 0      
154 3 -1.1996106368251 217.59718680252237 27.348366654437115 1.9725 0 0 0      
155 3 -1.1996106368251 217.49400682774743 29.318166172866682 0.0 0 0 0      
156 1 1.2010395010395 219.5669863209519 27.451546629211975 0.0 0 0 0      
157 2 2.40077962577963 221.4336058646066 29.52452612241646 1.9725 0 0 0      
158 3 -1.1996106368251 219.46380634617705 29.42134614764157 1.9725 0 0 0      
159 3 -1.1996106368251 221.53678583938148 27.554726603986865 1.9725 0 0 0      
160 3 -1.1996106368251 221.4336058646066 29.52452612241646 0.0 0 0 0      
161 1 1.2010395010395 223.50658535781105 27.657906578761754 0.0 0 0 0      
162 2 2.40077962577963 225.37320490146584 29.73088607196621 1.9725 0 0 0      
163 3 -1.1996106368251 223.40340538303624 29.62770609719135 1.9725 0 0 0      
164 3 -1.1996106368251 225.47638487624067 27.761086553536643 1.9725 0 0 0      
165 3 -1.1996106368251 225.37320490146584 29.73088607196621 0.0 0 0 0      
166 1 1.2010395010395 227.44618439467024 27.864266528311532 0.0 0 0 0      
167 2 2.40077962577963 229.31280393832495 29.93724602151599 1.9725 0 0 0      
168 3 -1.1996106368251 227.3430044198954 29.8340660467411 1.9725 0 0 0      
169 3 -1.1996106368251 229.41598391309984 27.967446503086393 1.9725 0 0 0      
170 3 -1.1996106368251 229.31280393832495 29.93724602151599 0.0 0 0 0      
171 1 1.2010395010395 231.38578343152943 28.070626477861282 0.0 0 0 0      
172 2 2.40077962577963 233.25240297518425 30.143605971065767 1.9725 0 0 0      
173 3 -1.1996106368251 231.2826034567546 30.040425996290878 1.9725 0 0 0      
174 3 -1.1996106368251 233.35558294995903 28.17380645263617 1.9725 0 0 0      
175 3 -1.1996106368251 233.25240297518425 30.143605971065767 0.0 0 0 0      
176 1 1.2010395010395 235.32538246838865 28.27698642741106 0.0 0 0 0      
177 2 2.40077962577963 237.19200201204336 30.349965920615546 1.9725 0 0 0      
178 3 -1.1996106368251 235.2222024936138 30.246785945840656 1.9725 0 0 0      
179 3 -1.1996106368251 237.29518198681825 28.38016640218595 1.9725 0 0 0      
180 3 -1.1996106368251 237.19200201204336 30.349965920615546 0.0 0 0 0      
181 2 2.40077962577963 237.3983619615931 116.10190495625045 5.917499999999999 0 0 0      
182 1 1.2010395010395 235.32538246838865 114.23528541259572 3.945 0 0 0      
183 3 -1.1996106368251 233.45876292473395 116.30826490580023 3.945 0 0 0      
184 3 -1.1996106368251 233.35558294995903 114.3384653873706 5.917499999999999 0 0 0      
185 3 -1.1996106368251 231.48896340630432 116.41144488057512 5.917499999999999 0 0 0      
186 2 2.40077962577963 43.94528925639355 24.17792742953614 1.9725 0 0 0      
187 3 -1.1996106368251 41.975489737963926 24.07474745476125 1.9725 0 0 0      
188 3 -1.1996106368251 43.94528925639355 24.17792742953614 0.0 0 0 0      
189 2 2.40077962577963 47.884888293252686 24.38428737908589 1.9725 0 0 0      
190 3 -1.1996106368251 45.91508877482312 24.28110740431103 1.9725 0 0 0      
191 3 -1.1996106368251 47.884888293252686 24.38428737908589 0.0 0 0 0      
192 2 2.40077962577963 51.82448733011188 24.59064732863567 1.9725 0 0 0      
193 3 -1.1996106368251 49.85468781168231 24.48746735386078 1.9725 0 0 0      
194 3 -1.1996106368251 51.82448733011188 24.59064732863567 0.0 0 0 0      
195 2 2.40077962577963 55.76408636697107 24.797007278185447 1.9725 0 0 0      
196 3 -1.1996106368251 53.7942868485415 24.693827303410558 1.9725 0 0 0      
197 3 -1.1996106368251 55.76408636697107 24.797007278185447 0.0 0 0 0      
198 2 2.40077962577963 59.70368540383026 25.003367227735225 1.9725 0 0 0      
199 3 -1.1996106368251 57.733885885400696 24.900187252960336 1.9725 0 0 0      
200 3 -1.1996106368251 59.70368540383026 25.003367227735225 0.0 0 0 0      
201 2 2.40077962577963 63.643284440689456 25.209727177284975 1.9725 0 0 0      
202 3 -1.1996106368251 61.67348492225989 25.106547202510086 1.9725 0 0 0      
203 3 -1.1996106368251 63.643284440689456 25.209727177284975 0.0 0 0 0      
204 2 2.40077962577963 67.58288347754865 25.416087126834725 1.9725 0 0 0      
205 3 -1.1996106368251 65.61308395911902 25.312907152059864 1.9725 0 0 0      
206 3 -1.1996106368251 67.58288347754865 25.416087126834725 0.0 0 0 0      
207 2 2.40077962577963 71.52248251440784 25.622447076384503 1.9725 0 0 0      
208 3 -1.1996106368251 69.55268299597822 25.519267101609614 1.9725 0 0 0      
209 3 -1.1996106368251 71.52248251440784 25.622447076384503 0.0 0 0 0      
210 2 2.40077962577963 233.45876292473395 116.30826490580023 5.917499999999999 0 0 0      
211 2 2.40077962577963 75.46208155126698 25.82880702593428 1.9725 0 0 0      
212 3 -1.1996106368251 73.49228203283741 25.725627051159393 1.9725 0 0 0      
213 1 1.2010395010395 231.38578343152943 114.4416453621455 3.945 0 0 0      
214 3 -1.1996106368251 75.46208155126698 25.82880702593428 0.0 0 0 0      
215 3 -1.1996106368251 229.51916388787475 116.51462485534995 3.945 0 0 0      
216 2 2.40077962577963 79.40168058812617 26.03516697548403 1.9725 0 0 0      
217 3 -1.1996106368251 77.4318810696966 25.93198700070917 1.9725 0 0 0      
218 3 -1.1996106368251 79.50486056290106 24.065367457054435 1.9725 0 0 0      
219 3 -1.1996106368251 79.40168058812617 26.03516697548403 0.0 0 0 0      
220 1 1.2010395010395 81.47466008133068 24.168547431829325 0.0 0 0 0      
221 2 2.40077962577963 83.34127962498536 26.24152692503381 1.9725 0 0 0      
222 3 -1.1996106368251 81.3714801065558 26.13834695025892 1.9725 0 0 0      
223 3 -1.1996106368251 83.44445959976025 24.271727406604214 1.9725 0 0 0      
224 3 -1.1996106368251 83.34127962498536 26.24152692503381 0.0 0 0 0      
225 1 1.2010395010395 85.41425911818982 24.374907381379103 0.0 0 0 0      
226 2 2.40077962577963 87.28087866184455 26.44788687458356 1.9725 0 0 0      
227 3 -1.1996106368251 85.31107914341499 26.3447068998087 1.9725 0 0 0      
228 3 -1.1996106368251 87.38405863661944 24.478087356153992 1.9725 0 0 0      
229 3 -1.1996106368251 87.28087866184455 26.44788687458356 0.0 0 0 0      
230 1 1.2010395010395 89.35385815504901 24.58126733092888 0.0 0 0 0      
231 2 2.40077962577963 91.22047769870376 26.654246824133338 1.9725 0 0 0      
232 3 -1.1996106368251 89.25067818027418 26.55106684935845 1.9725 0 0 0      
233 3 -1.1996106368251 91.32365767347864 24.68444730570377 1.9725 0 0 0      
234 3 -1.1996106368251 91.22047769870376 26.654246824133338 0.0 0 0 0      
235 1 1.2010395010395 93.2934571919082 24.78762728047863 0.0 0 0 0      
236 2 2.40077962577963 95.16007673556294 26.860606773683116 1.9725 0 0 0      
237 3 -1.1996106368251 93.19027721713331 26.757426798908227 1.9725 0 0 0      
238 3 -1.1996106368251 95.26325671033776 24.89080725525352 1.9725 0 0 0      
239 3 -1.1996106368251 95.16007673556294 26.860606773683116 0.0 0 0 0      
240 1 1.2010395010395 97.2330562287674 24.99398723002841 0.0 0 0 0      
241 2 2.40077962577963 99.09967577242212 27.066966723232866 1.9725 0 0 0      
242 3 -1.1996106368251 97.1298762539925 26.963786748458006 1.9725 0 0 0      
243 3 -1.1996106368251 99.20285574719696 25.09716720480327 1.9725 0 0 0      
244 3 -1.1996106368251 99.09967577242212 27.066966723232866 0.0 0 0 0      
245 1 1.2010395010395 101.1726552656266 25.20034717957816 0.0 0 0 0      
246 2 2.40077962577963 103.03927480928128 27.273326672782645 1.9725 0 0 0      
247 3 -1.1996106368251 101.0694752908517 27.170146698007756 1.9725 0 0 0      
248 3 -1.1996106368251 103.14245478405616 25.30352715435305 1.9725 0 0 0      
249 3 -1.1996106368251 103.03927480928128 27.273326672782645 0.0 0 0 0      
250 1 1.2010395010395 105.11225430248578 25.406707129127938 0.0 0 0 0      
251 2 2.40077962577963 106.97887384614046 27.479686622332395 1.9725 0 0 0      
252 3 -1.1996106368251 105.00907432771088 27.376506647557505 1.9725 0 0 0      
253 3 -1.1996106368251 107.08205382091536 25.509887103902827 1.9725 0 0 0      
254 3 -1.1996106368251 106.97887384614046 27.479686622332395 0.0 0 0 0      
255 1 1.2010395010395 109.05185333934496 25.613067078677716 0.0 0 0 0      
256 2 2.40077962577963 110.91847288299964 27.686046571882173 1.9725 0 0 0      
257 3 -1.1996106368251 108.94867336457008 27.582866597107284 1.9725 0 0 0      
258 3 -1.1996106368251 111.02165285777454 25.716247053452605 1.9725 0 0 0      
259 3 -1.1996106368251 110.91847288299964 27.686046571882173 0.0 0 0 0      
260 1 1.2010395010395 112.99145237620412 25.819427028227466 0.0 0 0 0      
261 2 2.40077962577963 114.85807191985884 27.89240652143195 1.9725 0 0 0      
262 3 -1.1996106368251 112.88827240142928 27.789226546657062 1.9725 0 0 0      
263 3 -1.1996106368251 114.96125189463372 25.922607003002355 1.9725 0 0 0      
264 3 -1.1996106368251 114.85807191985884 27.89240652143195 0.0 0 0 0      
265 1 1.2010395010395 116.93105141306336 26.025786977777244 0.0 0 0 0      
266 2 2.40077962577963 118.79767095671804 28.0987664709817 1.9725 0 0 0      
267 3 -1.1996106368251 116.82787143828848 27.99558649620684 1.9725 0 0 0      
268 3 -1.1996106368251 118.90085093149293 26.128966952552105 1.9725 0 0 0      
269 3 -1.1996106368251 118.79767095671804 28.0987664709817 0.0 0 0 0      
270 1 1.2010395010395 120.8706504499225 26.232146927326994 0.0 0 0 0      
271 2 2.40077962577963 122.73726999357724 28.30512642053148 1.9725 0 0 0      
272 3 -1.1996106368251 120.7674704751476 28.20194644575659 1.9725 0 0 0      
273 3 -1.1996106368251 122.84044996835206 26.335326902101883 1.9725 0 0 0      
274 3 -1.1996106368251 122.73726999357724 28.30512642053148 0.0 0 0 0      
275 1 1.2010395010395 124.81024948678169 26.438506876876772 0.0 0 0 0      
276 2 2.40077962577963 126.67686903043642 28.51148637008123 1.9725 0 0 0      
277 3 -1.1996106368251 124.70706951200684 28.40830639530637 1.9725 0 0 0      
278 3 -1.1996106368251 126.78004900521132 26.54168685165166 1.9725 0 0 0      
279 3 -1.1996106368251 126.67686903043642 28.51148637008123 0.0 0 0 0      
280 1 1.2010395010395 128.74984852364088 26.644866826426522 0.0 0 0 0      
281 2 2.40077962577963 130.6164680672956 28.717846319631008 1.9725 0 0 0      
282 3 -1.1996106368251 128.646668548866 28.61466634485612 1.9725 0 0 0      
283 3 -1.1996106368251 130.7196480420705 26.74804680120144 1.9725 0 0 0      
284 3 -1.1996106368251 130.6164680672956 28.717846319631008 0.0 0 0 0      
285 1 1.2010395010395 132.68944756050007 26.85122677597633 0.0 0 0 0      
286 2 2.40077962577963 134.5560671041548 28.924206269180786 1.9725 0 0 0      
287 3 -1.1996106368251 132.58626758572518 28.821026294405897 1.9725 0 0 0      
288 3 -1.1996106368251 134.6592470789297 26.95440675075119 1.9725 0 0 0      
289 3 -1.1996106368251 134.5560671041548 28.924206269180786 0.0 0 0 0      
290 1 1.2010395010395 136.62904659735926 27.05758672552608 0.0 0 0 0      
291 2 2.40077962577963 138.49566614101394 29.130566218730536 1.9725 0 0 0      
292 3 -1.1996106368251 136.52586662258437 29.027386243955675 1.9725 0 0 0      
293 3 -1.1996106368251 138.59884611578883 27.16076670030094 1.9725 0 0 0      
294 3 -1.1996106368251 138.49566614101394 29.130566218730536 0.0 0 0 0      
295 1 1.2010395010395 140.5686456342184 27.26394667507583 0.0 0 0 0      
296 2 2.40077962577963 142.4352651778731 29.336926168280314 1.9725 0 0 0      
297 3 -1.1996106368251 140.4654656594435 29.233746193505425 1.9725 0 0 0      
298 3 -1.1996106368251 142.53844515264802 27.367126649850718 1.9725 0 0 0      
299 3 -1.1996106368251 142.4352651778731 29.336926168280314 0.0 0 0 0      
300 1 1.2010395010395 144.50824467107765 27.470306624625607 0.0 0 0 0      
301 2 2.40077962577963 146.37486421473233 29.543286117830064 1.9725 0 0 0      
302 3 -1.1996106368251 144.40506469630276 29.440106143055203 1.9725 0 0 0      
303 3 -1.1996106368251 146.47804418950722 27.573486599400496 1.9725 0 0 0      
304 3 -1.1996106368251 146.37486421473233 29.543286117830064 0.0 0 0 0      
305 1 1.2010395010395 148.44784370793678 27.676666574175385 0.0 0 0 0      
306 2 2.40077962577963 150.31446325159152 29.749646067379842 1.9725 0 0 0      
307 3 -1.1996106368251 148.3446637331619 29.646466092604953 1.9725 0 0 0      
308 3 -1.1996106368251 150.4176432263664 27.779846548950246 1.9725 0 0 0      
309 3 -1.1996106368251 150.31446325159152 29.749646067379842 0.0 0 0 0      
310 1 1.2010395010395 152.38744274479603 27.883026523725135 0.0 0 0 0      
311 2 2.40077962577963 154.2540622884507 29.95600601692962 1.9725 0 0 0      
312 3 -1.1996106368251 152.28426277002114 29.85282604215473 1.9725 0 0 0      
313 3 -1.1996106368251 154.3572422632256 27.986206498500025 1.9725 0 0 0      
314 3 -1.1996106368251 154.2540622884507 29.95600601692962 0.0 0 0 0      
315 1 1.2010395010395 156.32704178165517 28.089386473274914 0.0 0 0 0      
316 2 2.40077962577963 158.19366132530985 30.1623659664794 1.9725 0 0 0      
317 3 -1.1996106368251 156.22386180688028 30.05918599170451 1.9725 0 0 0      
318 3 -1.1996106368251 158.29684130008474 28.192566448049774 1.9725 0 0 0      
319 3 -1.1996106368251 158.19366132530985 30.1623659664794 0.0 0 0 0      
320 1 1.2010395010395 160.26664081851436 28.295746422824664 0.0 0 0 0      
321 2 2.40077962577963 162.1332603621691 30.36872591602915 1.9725 0 0 0      
322 3 -1.1996106368251 160.16346084373947 30.26554594125426 1.9725 0 0 0      
323 3 -1.1996106368251 162.236440336944 28.398926397599553 1.9725 0 0 0      
324 3 -1.1996106368251 162.1332603621691 30.36872591602915 0.0 0 0 0      
325 1 1.2010395010395 164.20623985537355 28.502106372374442 0.0 0 0 0      
326 2 2.40077962577963 166.07285939902823 30.5750858655789 1.9725 0 0 0      
327 3 -1.1996106368251 164.10305988059866 30.471905890804038 1.9725 0 0 0      
328 3 -1.1996106368251 166.17603937380312 28.60528634714933 1.9725 0 0 0      
329 3 -1.1996106368251 166.07285939902823 30.5750858655789 0.0 0 0 0      
330 1 1.2010395010395 168.14583889223275 28.708466321924192 0.0 0 0 0      
331 2 2.40077962577963 170.01245843588748 30.781445815128677 1.9725 0 0 0      
332 3 -1.1996106368251 168.04265891745786 30.678265840353788 1.9725 0 0 0      
333 3 -1.1996106368251 170.11563841066237 28.81164629669908 1.9725 0 0 0      
334 3 -1.1996106368251 170.01245843588748 30.781445815128677 0.0 0 0 0      
335 1 1.2010395010395 172.08543792909194 28.91482627147397 0.0 0 0 0      
336 2 2.40077962577963 173.95205747274662 30.987805764678455 1.9725 0 0 0      
337 3 -1.1996106368251 171.98225795431705 30.884625789903566 1.9725 0 0 0      
338 3 -1.1996106368251 174.0552374475215 29.01800624624886 1.9725 0 0 0      
339 3 -1.1996106368251 173.95205747274662 30.987805764678455 0.0 0 0 0      
340 1 1.2010395010395 176.02503696595107 29.12118622102375 0.0 0 0 0      
341 2 2.40077962577963 177.8916565096058 31.194165714228205 1.9725 0 0 0      
342 3 -1.1996106368251 175.92185699117618 31.090985739453345 1.9725 0 0 0      
343 3 -1.1996106368251 177.9948364843807 29.22436619579861 1.9725 0 0 0      
344 3 -1.1996106368251 177.8916565096058 31.194165714228205 0.0 0 0 0      
345 1 1.2010395010395 179.96463600281032 29.3275461705735 0.0 0 0 0      
346 2 2.40077962577963 181.831255546465 31.400525663777984 1.9725 0 0 0      
347 3 -1.1996106368251 179.86145602803543 31.297345689003095 1.9725 0 0 0      
348 3 -1.1996106368251 181.9344355212399 29.430726145348387 1.9725 0 0 0      
349 3 -1.1996106368251 181.831255546465 31.400525663777984 0.0 0 0 0      
350 1 1.2010395010395 183.90423503966943 29.533906120123277 0.0 0 0 0      
351 2 2.40077962577963 185.7708545833242 31.606885613327762 1.9725 0 0 0      
352 3 -1.1996106368251 183.80105506489457 31.503705638552844 1.9725 0 0 0      
353 3 -1.1996106368251 185.87403455809908 29.637086094898166 1.9725 0 0 0      
354 3 -1.1996106368251 185.7708545833242 31.606885613327762 0.0 0 0 0      
355 1 1.2010395010395 187.84383407652865 29.740266069673055 0.0 0 0 0      
356 2 2.40077962577963 189.7104536201834 31.813245562877512 1.9725 0 0 0      
357 3 -1.1996106368251 187.74065410175376 31.710065588102623 1.9725 0 0 0      
358 3 -1.1996106368251 189.81363359495828 29.843446044447916 1.9725 0 0 0      
359 3 -1.1996106368251 189.7104536201834 31.813245562877512 0.0 0 0 0      
360 1 1.2010395010395 191.78343311338784 29.946626019222805 0.0 0 0 0      
361 2 2.40077962577963 193.6500526570425 32.01960551242729 1.9725 0 0 0      
362 3 -1.1996106368251 191.68025313861293 31.9164255376524 1.9725 0 0 0      
363 3 -1.1996106368251 193.7532326318174 30.049805993997694 1.9725 0 0 0      
364 3 -1.1996106368251 193.6500526570425 32.01960551242729 0.0 0 0 0      
365 1 1.2010395010395 195.72303215024695 30.152985968772555 0.0 0 0 0      
366 2 2.40077962577963 197.58965169390177 32.22596546197704 1.9725 0 0 0      
367 3 -1.1996106368251 195.6198521754721 32.12278548720218 1.9725 0 0 0      
368 3 -1.1996106368251 197.69283166867663 30.256165943547472 1.9725 0 0 0      
369 3 -1.1996106368251 197.58965169390177 32.22596546197704 0.0 0 0 0      
370 1 1.2010395010395 199.66263118710623 30.359345918322333 0.0 0 0 0      
371 2 2.40077962577963 201.5292507307609 32.43232541152682 1.9725 0 0 0      
372 3 -1.1996106368251 199.5594512123313 32.32914543675193 1.9725 0 0 0      
373 3 -1.1996106368251 201.6324307055358 30.462525893097222 1.9725 0 0 0      
374 3 -1.1996106368251 201.5292507307609 32.43232541152682 0.0 0 0 0      
375 1 1.2010395010395 203.60223022396536 30.56570586787211 0.0 0 0 0      
376 2 2.40077962577963 205.4688497676201 32.63868536107657 1.9725 0 0 0      
377 3 -1.1996106368251 203.49905024919047 32.53550538630168 1.9725 0 0 0      
378 3 -1.1996106368251 205.572029742395 30.668885842647 1.9725 0 0 0      
379 3 -1.1996106368251 205.4688497676201 32.63868536107657 0.0 0 0 0      
380 1 1.2010395010395 207.5418292608246 30.77206581742189 0.0 0 0 0      