LAMMPS data file via write_data, version 19 Nov 2024, timestep = 0, units =.1 metal
              
28712 atoms             
3 atom types            
              
0 237.520453066678 xlo xhi           
-142.512271840007 47.5040906133356 ylo yhi           
0 7.89 zlo zhi           
              
Masses              
              
1 87.62             
2 47.867             
3 15.999             
              
Atoms # charge            
              
1 2 2.40007764868259 183.25701519789976 -142.491545164114 1.9725 0 0 0      
2 3 -1.1999611756587 183.25701519789976 -142.491545164114 0.0 0 0 0      
3 2 2.40007764868259 187.1966142347589 -142.28518521456422 1.9725 0 0 0      
4 3 -1.1999611756587 185.22681471632933 -142.3883651893391 1.9725 0 0 0      
5 3 -1.1999611756587 187.1966142347589 -142.28518521456422 0.0 0 0 0      
6 2 2.40007764868259 191.13621327161812 -142.07882526501447 1.9725 0 0 0      
7 3 -1.1999611756587 189.1664137531885 -142.18200523978936 1.9725 0 0 0      
8 3 -1.1999611756587 191.13621327161812 -142.07882526501447 0.0 0 0 0      
9 2 2.40007764868259 195.07581230847728 -141.8724653154647 1.9725 0 0 0      
10 3 -1.1999611756587 193.1060127900477 -141.97564529023958 1.9725 0 0 0      
11 3 -1.1999611756587 195.07581230847728 -141.8724653154647 0.0 0 0 0      
12 2 2.40007764868259 199.01541134533647 -141.66610536591494 1.9725 0 0 0      
13 3 -1.1999611756587 197.04561182690685 -141.7692853406898 1.9725 0 0 0      
14 3 -1.1999611756587 199.01541134533647 -141.66610536591494 0.0 0 0 0      
15 2 2.40007764868259 202.95501038219567 -141.45974541636517 1.9725 0 0 0      
16 3 -1.1999611756587 200.98521086376604 -141.56292539114006 1.9725 0 0 0      
17 3 -1.1999611756587 202.95501038219567 -141.45974541636517 0.0 0 0 0      
18 2 2.40007764868259 206.8946094190549 -141.2533854668154 1.9725 0 0 0      
19 3 -1.1999611756587 204.92480990062523 -141.35656544159028 1.9725 0 0 0      
20 3 -1.1999611756587 206.8946094190549 -141.2533854668154 0.0 0 0 0      
21 2 2.40007764868259 210.83420845591405 -141.04702551726564 1.9725 0 0 0      
22 3 -1.1999611756587 208.86440893748443 -141.15020549204053 1.9725 0 0 0      
23 3 -1.1999611756587 210.83420845591405 -141.04702551726564 0.0 0 0 0      
24 2 2.40007764868259 214.7738074927732 -140.84066556771586 1.9725 0 0 0      
25 3 -1.1999611756587 212.8040079743436 -140.94384554249075 1.9725 0 0 0      
26 3 -1.1999611756587 214.7738074927732 -140.84066556771586 0.0 0 0 0      
27 2 2.40007764868259 218.71340652963244 -140.6343056181661 1.9725 0 0 0      
28 3 -1.1999611756587 216.7436070112028 -140.73748559294097 1.9725 0 0 0      
29 3 -1.1999611756587 218.71340652963244 -140.6343056181661 0.0 0 0 0      
30 1 1.20010353753236 220.7863860228369 -142.5009251618208 0.0 0 0 0      
31 2 2.40007764868259 222.6530055664916 -140.42794566861633 1.9725 0 0 0      
32 3 -1.1999611756587 220.683206048062 -140.53112564339122 1.9725 0 0 0      
33 3 -1.1999611756587 222.7561855412665 -142.3977451870459 1.9725 0 0 0      
34 3 -1.1999611756587 222.6530055664916 -140.42794566861633 0.0 0 0 0      
35 1 1.20010353753236 224.72598505969603 -142.294565212271 0.0 0 0 0      
36 2 2.40007764868259 226.5926046033508 -140.22158571906655 1.9725 0 0 0      
37 3 -1.1999611756587 224.62280508492117 -140.32476569384144 1.9725 0 0 0      
38 3 -1.1999611756587 226.69578457812565 -142.19138523749612 1.9725 0 0 0      
39 3 -1.1999611756587 226.5926046033508 -140.22158571906655 0.0 0 0 0      
40 1 1.20010353753236 228.66558409655528 -142.08820526272126 0.0 0 0 0      
41 2 2.40007764868259 230.53220364021 -140.0152257695168 1.9725 0 0 0      
42 3 -1.1999611756587 228.5624041217804 -140.1184057442917 1.9725 0 0 0      
43 3 -1.1999611756587 230.63538361498485 -141.98502528794637 1.9725 0 0 0      
44 3 -1.1999611756587 230.53220364021 -140.0152257695168 0.0 0 0 0      
45 1 1.20010353753236 232.6051831334144 -141.88184531317148 0.0 0 0 0      
46 2 2.40007764868259 234.4718026770691 -139.80886581996702 1.9725 0 0 0      
47 3 -1.1999611756587 232.50200315863952 -139.9120457947419 1.9725 0 0 0      
48 3 -1.1999611756587 234.574982651844 -141.7786653383966 1.9725 0 0 0      
49 3 -1.1999611756587 234.4718026770691 -139.80886581996702 0.0 0 0 0      
50 1 1.20010353753236 236.54478217027363 -141.6754853636217 0.0 0 0 0      
51 3 -1.1999611756587 236.44160219549877 -139.70568584519214 1.9725 0 0 0      
52 2 2.40007764868259 108.1982735480255 -142.47278516870037 1.9725 0 0 0      
53 3 -1.1999611756587 108.1982735480255 -142.47278516870037 0.0 0 0 0      
54 2 2.40007764868259 112.13787258488463 -142.26642521915062 1.9725 0 0 0      
55 3 -1.1999611756587 110.16807306645508 -142.3696051939255 1.9725 0 0 0      
56 3 -1.1999611756587 112.13787258488463 -142.26642521915062 0.0 0 0 0      
57 2 2.40007764868259 116.07747162174384 -142.06006526960084 1.9725 0 0 0      
58 3 -1.1999611756587 114.10767210331426 -142.16324524437573 1.9725 0 0 0      
59 3 -1.1999611756587 116.07747162174384 -142.06006526960084 0.0 0 0 0      
60 2 2.40007764868259 120.01707065860302 -141.8537053200511 1.9725 0 0 0      
61 3 -1.1999611756587 118.04727114017344 -141.95688529482595 1.9725 0 0 0      
62 3 -1.1999611756587 120.01707065860302 -141.8537053200511 0.0 0 0 0      
63 2 2.40007764868259 123.9566696954622 -141.6473453705013 1.9725 0 0 0      
64 3 -1.1999611756587 121.98687017703264 -141.7505253452762 1.9725 0 0 0      
65 3 -1.1999611756587 123.9566696954622 -141.6473453705013 0.0 0 0 0      
66 2 2.40007764868259 127.8962687323214 -141.4409854209515 1.9725 0 0 0      
67 3 -1.1999611756587 125.92646921389183 -141.54416539572642 1.9725 0 0 0      
68 3 -1.1999611756587 127.8962687323214 -141.4409854209515 0.0 0 0 0      
69 2 2.40007764868259 131.83586776918054 -141.23462547140178 1.9725 0 0 0      
70 3 -1.1999611756587 129.86606825075097 -141.33780544617667 1.9725 0 0 0      
71 3 -1.1999611756587 131.83586776918054 -141.23462547140178 0.0 0 0 0      
72 2 2.40007764868259 135.7754668060398 -141.028265521852 1.9725 0 0 0      
73 3 -1.1999611756587 133.80566728761016 -141.1314454966269 1.9725 0 0 0      
74 3 -1.1999611756587 135.7754668060398 -141.028265521852 0.0 0 0 0      
75 2 2.40007764868259 139.71506584289892 -140.82190557230226 1.9725 0 0 0      
76 3 -1.1999611756587 137.74526632446936 -140.92508554707712 1.9725 0 0 0      
77 3 -1.1999611756587 139.71506584289892 -140.82190557230226 0.0 0 0 0      
78 2 2.40007764868259 143.65466487975817 -140.61554562275248 1.9725 0 0 0      
79 3 -1.1999611756587 141.68486536132855 -140.71872559752737 1.9725 0 0 0      
80 3 -1.1999611756587 143.65466487975817 -140.61554562275248 0.0 0 0 0      
81 1 1.20010353753236 145.72764437296263 -142.4821651664072 0.0 0 0 0      
82 2 2.40007764868259 147.5942639166173 -140.4091856732027 1.9725 0 0 0      
83 3 -1.1999611756587 145.62446439818774 -140.5123656479776 1.9725 0 0 0      
84 3 -1.1999611756587 147.6974438913922 -142.3789851916323 1.9725 0 0 0      
85 3 -1.1999611756587 147.5942639166173 -140.4091856732027 0.0 0 0 0      
86 1 1.20010353753236 149.66724340982176 -142.27580521685744 0.0 0 0 0      
87 2 2.40007764868259 151.53386295347656 -140.20282572365295 1.9725 0 0 0      
88 3 -1.1999611756587 149.56406343504688 -140.30600569842784 1.9725 0 0 0      
89 3 -1.1999611756587 151.63704292825145 -142.17262524208255 1.9725 0 0 0      
90 3 -1.1999611756587 151.53386295347656 -140.20282572365295 0.0 0 0 0      
91 1 1.20010353753236 153.606842446681 -142.06944526730766 0.0 0 0 0      
92 2 2.40007764868259 155.4734619903357 -139.99646577410317 1.9725 0 0 0      
93 3 -1.1999611756587 153.50366247190613 -140.09964574887806 1.9725 0 0 0      
94 3 -1.1999611756587 155.57664196511058 -141.96626529253277 1.9725 0 0 0      
95 3 -1.1999611756587 155.4734619903357 -139.99646577410317 0.0 0 0 0      
96 1 1.20010353753236 157.54644148354015 -141.86308531775788 0.0 0 0 0      
97 2 2.40007764868259 159.41306102719489 -139.79010582455342 1.9725 0 0 0      
98 3 -1.1999611756587 157.44326150876526 -139.89328579932828 1.9725 0 0 0      
99 3 -1.1999611756587 159.51624100196975 -141.75990534298302 1.9725 0 0 0      
100 3 -1.1999611756587 159.41306102719489 -139.79010582455342 0.0 0 0 0      
101 1 1.20010353753236 161.48604052039934 -141.65672536820813 0.0 0 0 0      
102 2 2.40007764868259 163.35266006405408 -139.58374587500364 1.9725 0 0 0      
103 3 -1.1999611756587 161.38286054562445 -139.68692584977853 1.9725 0 0 0      
104 3 -1.1999611756587 163.45584003882897 -141.55354539343324 1.9725 0 0 0      
105 3 -1.1999611756587 163.35266006405408 -139.58374587500364 0.0 0 0 0      
106 1 1.20010353753236 165.4256395572585 -141.45036541865835 0.0 0 0 0      
107 2 2.40007764868259 167.2922591009132 -139.37738592545386 1.9725 0 0 0      
108 3 -1.1999611756587 165.32245958248365 -139.48056590022875 1.9725 0 0 0      
109 3 -1.1999611756587 167.3954390756881 -141.34718544388346 1.9725 0 0 0      
110 3 -1.1999611756587 167.2922591009132 -139.37738592545386 0.0 0 0 0      
111 1 1.20010353753236 169.36523859411773 -141.2440054691086 0.0 0 0 0      
112 2 2.40007764868259 171.23185813777246 -139.17102597590412 1.9725 0 0 0      
113 3 -1.1999611756587 169.26205861934284 -139.274205950679 1.9725 0 0 0      
114 3 -1.1999611756587 171.33503811254735 -141.1408254943337 1.9725 0 0 0      
115 3 -1.1999611756587 171.23185813777246 -139.17102597590412 0.0 0 0 0      
116 1 1.20010353753236 173.30483763097692 -141.03764551955882 0.0 0 0 0      
117 2 2.40007764868259 175.1714571746316 -138.96466602635434 1.9725 0 0 0      
118 3 -1.1999611756587 173.20165765620203 -139.06784600112923 1.9725 0 0 0      
119 3 -1.1999611756587 175.2746371494065 -140.93446554478393 1.9725 0 0 0      
120 3 -1.1999611756587 175.1714571746316 -138.96466602635434 0.0 0 0 0      
121 1 1.20010353753236 177.24443666783606 -140.83128557000904 0.0 0 0 0      
122 2 2.40007764868259 179.1110562114908 -138.7583060768046 1.9725 0 0 0      
123 3 -1.1999611756587 177.14125669306117 -138.86148605157945 1.9725 0 0 0      
124 3 -1.1999611756587 179.21423618626568 -140.72810559523418 1.9725 0 0 0      
125 3 -1.1999611756587 179.1110562114908 -138.7583060768046 0.0 0 0 0      
126 1 1.20010353753236 181.1840357046953 -140.6249256204593 0.0 0 0 0      
127 2 2.40007764868259 183.05065524835 -138.5519461272548 1.9725 0 0 0      
128 3 -1.1999611756587 181.0808557299204 -138.6551261020297 1.9725 0 0 0      
129 3 -1.1999611756587 183.15383522312487 -140.5217456456844 1.9725 0 0 0      
130 3 -1.1999611756587 183.05065524835 -138.5519461272548 0.0 0 0 0      
131 1 1.20010353753236 185.12363474155444 -140.41856567090952 0.0 0 0 0      
132 2 2.40007764868259 186.9902542852092 -138.34558617770503 1.9725 0 0 0      
133 3 -1.1999611756587 185.02045476677955 -138.44876615247992 1.9725 0 0 0      
134 3 -1.1999611756587 187.0934342599841 -140.31538569613463 1.9725 0 0 0      
135 3 -1.1999611756587 186.9902542852092 -138.34558617770503 0.0 0 0 0      
136 1 1.20010353753236 189.0632337784137 -140.21220572135977 0.0 0 0 0      
137 2 2.40007764868259 190.9298533220684 -138.13922622815528 1.9725 0 0 0      
138 3 -1.1999611756587 188.9600538036388 -138.24240620293017 1.9725 0 0 0      
139 3 -1.1999611756587 191.03303329684329 -140.10902574658488 1.9725 0 0 0      
140 3 -1.1999611756587 190.9298533220684 -138.13922622815528 0.0 0 0 0      
141 1 1.20010353753236 193.0028328152728 -140.00584577181 0.0 0 0 0      
142 2 2.40007764868259 194.8694523589275 -137.9328662786055 1.9725 0 0 0      
143 3 -1.1999611756587 192.89965284049796 -138.0360462533804 1.9725 0 0 0      
144 3 -1.1999611756587 194.9726323337024 -139.9026657970351 1.9725 0 0 0      
145 3 -1.1999611756587 194.8694523589275 -137.9328662786055 0.0 0 0 0      
146 1 1.20010353753236 196.942431852132 -139.7994858222602 0.0 0 0 0      
147 2 2.40007764868259 198.80905139578675 -137.72650632905575 1.9725 0 0 0      
148 3 -1.1999611756587 196.83925187735716 -137.8296863038306 1.9725 0 0 0      
149 3 -1.1999611756587 198.91223137056164 -139.69630584748535 1.9725 0 0 0      
150 3 -1.1999611756587 198.80905139578675 -137.72650632905575 0.0 0 0 0      
151 1 1.20010353753236 200.8820308889912 -139.59312587271046 0.0 0 0 0      
152 2 2.40007764868259 202.7486504326459 -137.52014637950597 1.9725 0 0 0      
153 3 -1.1999611756587 200.77885091421632 -137.62332635428086 1.9725 0 0 0      
154 3 -1.1999611756587 202.8518304074208 -139.48994589793557 1.9725 0 0 0      
155 3 -1.1999611756587 202.7486504326459 -137.52014637950597 0.0 0 0 0      
156 1 1.20010353753236 204.8216299258504 -139.38676592316068 0.0 0 0 0      
157 2 2.40007764868259 206.68824946950517 -137.3137864299562 1.9725 0 0 0      
158 3 -1.1999611756587 204.7184499510755 -137.41696640473108 1.9725 0 0 0      
159 3 -1.1999611756587 206.79142944428003 -139.2835859483858 1.9725 0 0 0      
160 3 -1.1999611756587 206.68824946950517 -137.3137864299562 0.0 0 0 0      
161 1 1.20010353753236 208.7612289627096 -139.18040597361093 0.0 0 0 0      
162 2 2.40007764868259 210.62784850636427 -137.10742648040645 1.9725 0 0 0      
163 3 -1.1999611756587 208.6580489879347 -137.2106064551813 1.9725 0 0 0      
164 3 -1.1999611756587 210.7310284811392 -139.07722599883604 1.9725 0 0 0      
165 3 -1.1999611756587 210.62784850636427 -137.10742648040645 0.0 0 0 0      
166 1 1.20010353753236 212.70082799956876 -138.97404602406115 0.0 0 0 0      
167 2 2.40007764868259 214.56744754322347 -136.90106653085667 1.9725 0 0 0      
168 3 -1.1999611756587 212.59764802479384 -137.00424650563156 1.9725 0 0 0      
169 3 -1.1999611756587 214.67062751799835 -138.87086604928626 1.9725 0 0 0      
170 3 -1.1999611756587 214.56744754322347 -136.90106653085667 0.0 0 0 0      
171 1 1.20010353753236 216.64042703642792 -138.76768607451135 0.0 0 0 0      
172 2 2.40007764868259 218.50704658008263 -136.69470658130692 1.9725 0 0 0      
173 3 -1.1999611756587 216.53724706165303 -136.79788655608178 1.9725 0 0 0      
174 3 -1.1999611756587 218.61022655485755 -138.6645060997365 1.9725 0 0 0      
175 3 -1.1999611756587 218.50704658008263 -136.69470658130692 0.0 0 0 0      
176 1 1.20010353753236 220.58002607328712 -138.56132612496162 0.0 0 0 0      
177 2 2.40007764868259 222.44664561694185 -136.48834663175714 1.9725 0 0 0      
178 3 -1.1999611756587 220.47684609851223 -136.59152660653203 1.9725 0 0 0      
179 3 -1.1999611756587 222.54982559171677 -138.45814615018674 1.9725 0 0 0      
180 3 -1.1999611756587 222.44664561694185 -136.48834663175714 0.0 0 0 0      
181 1 1.20010353753236 224.5196251101463 -138.35496617541185 0.0 0 0 0      
182 2 2.40007764868259 226.38624465380104 -136.28198668220736 1.9725 0 0 0      
183 3 -1.1999611756587 224.41644513537145 -136.38516665698225 1.9725 0 0 0      
184 3 -1.1999611756587 226.48942462857596 -138.25178620063696 1.9725 0 0 0      
185 3 -1.1999611756587 226.38624465380104 -136.28198668220736 0.0 0 0 0      
186 1 1.20010353753236 228.4592241470055 -138.1486062258621 0.0 0 0 0      
187 2 2.40007764868259 230.32584369066015 -136.0756267326576 1.9725 0 0 0      
188 3 -1.1999611756587 228.3560441722306 -136.1788067074325 1.9725 0 0 0      
189 3 -1.1999611756587 230.42902366543507 -138.0454262510872 1.9725 0 0 0      
190 3 -1.1999611756587 230.32584369066015 -136.0756267326576 0.0 0 0 0      
191 1 1.20010353753236 232.39882318386464 -137.94224627631232 0.0 0 0 0      
192 2 2.40007764868259 234.26544272751937 -135.86926678310783 1.9725 0 0 0      
193 3 -1.1999611756587 232.29564320908972 -135.97244675788272 1.9725 0 0 0      
194 3 -1.1999611756587 234.36862270229423 -137.83906630153743 1.9725 0 0 0      
195 3 -1.1999611756587 234.26544272751937 -135.86926678310783 0.0 0 0 0      
196 1 1.20010353753236 236.33842222072388 -137.73588632676254 0.0 0 0 0      
197 3 -1.1999611756587 236.235242245949 -135.76608680833294 1.9725 0 0 0      
198 2 2.40007764868259 33.139531898151176 -142.4540251732868 1.9725 0 0 0      
199 3 -1.1999611756587 33.139531898151176 -142.4540251732868 0.0 0 0 0      
200 2 2.40007764868259 37.07913093501037 -142.24766522373702 1.9725 0 0 0      
201 3 -1.1999611756587 35.1093314165808 -142.3508451985119 1.9725 0 0 0      
202 3 -1.1999611756587 37.07913093501037 -142.24766522373702 0.0 0 0 0      
203 2 2.40007764868259 41.01872997186956 -142.04130527418724 1.9725 0 0 0      
204 3 -1.1999611756587 39.04893045343994 -142.14448524896213 1.9725 0 0 0      
205 3 -1.1999611756587 41.01872997186956 -142.04130527418724 0.0 0 0 0      
206 2 2.40007764868259 44.958329008728754 -141.8349453246375 1.9725 0 0 0      
207 3 -1.1999611756587 42.98852949029913 -141.93812529941238 1.9725 0 0 0      
208 3 -1.1999611756587 44.958329008728754 -141.8349453246375 0.0 0 0 0      
209 2 2.40007764868259 48.897928045587946 -141.6285853750877 1.9725 0 0 0      
210 3 -1.1999611756587 46.92812852715832 -141.7317653498626 1.9725 0 0 0      
211 3 -1.1999611756587 48.897928045587946 -141.6285853750877 0.0 0 0 0      
212 2 2.40007764868259 52.83752708244714 -141.42222542553796 1.9725 0 0 0      
213 3 -1.1999611756587 50.86772756401752 -141.52540540031282 1.9725 0 0 0      
214 3 -1.1999611756587 52.83752708244714 -141.42222542553796 0.0 0 0 0      
215 2 2.40007764868259 56.777126119306274 -141.21586547598818 1.9725 0 0 0      
216 3 -1.1999611756587 54.80732660087671 -141.31904545076307 1.9725 0 0 0      
217 3 -1.1999611756587 56.777126119306274 -141.21586547598818 0.0 0 0 0      
218 2 2.40007764868259 60.71672515616547 -141.0095055264384 1.9725 0 0 0      
219 3 -1.1999611756587 58.7469256377359 -141.1126855012133 1.9725 0 0 0      
220 3 -1.1999611756587 60.71672515616547 -141.0095055264384 0.0 0 0 0      
221 2 2.40007764868259 64.65632419302466 -140.80314557688865 1.9725 0 0 0      
222 3 -1.1999611756587 62.68652467459509 -140.90632555166354 1.9725 0 0 0      
223 3 -1.1999611756587 64.65632419302466 -140.80314557688865 0.0 0 0 0      
224 2 2.40007764868259 68.59592322988385 -140.59678562733887 1.9725 0 0 0      
225 3 -1.1999611756587 66.62612371145423 -140.69996560211376 1.9725 0 0 0      
226 3 -1.1999611756587 68.59592322988385 -140.59678562733887 0.0 0 0 0      
227 1 1.20010353753236 70.66890272308837 -142.46340517099355 0.0 0 0 0      
228 2 2.40007764868259 72.53552226674304 -140.39042567778912 1.9725 0 0 0      
229 3 -1.1999611756587 70.56572274831348 -140.493605652564 1.9725 0 0 0      
230 3 -1.1999611756587 72.63870224151793 -142.3602251962187 1.9725 0 0 0      
231 3 -1.1999611756587 72.53552226674304 -140.39042567778912 0.0 0 0 0      
232 1 1.20010353753236 74.6085017599475 -142.2570452214438 0.0 0 0 0      
233 2 2.40007764868259 76.47512130360218 -140.18406572823935 1.9725 0 0 0      
234 3 -1.1999611756587 74.50532178517261 -140.28724570301424 1.9725 0 0 0      
235 3 -1.1999611756587 76.57830127837707 -142.15386524666891 1.9725 0 0 0      
236 3 -1.1999611756587 76.47512130360218 -140.18406572823935 0.0 0 0 0      
237 1 1.20010353753236 78.5481007968067 -142.05068527189405 0.0 0 0 0      
238 2 2.40007764868259 80.41472034046143 -139.97770577868957 1.9725 0 0 0      
239 3 -1.1999611756587 78.4449208220318 -140.08088575346446 1.9725 0 0 0      
240 3 -1.1999611756587 80.51790031523632 -141.94750529711914 1.9725 0 0 0      
241 3 -1.1999611756587 80.41472034046143 -139.97770577868957 0.0 0 0 0      
242 1 1.20010353753236 82.48769983366589 -141.84432532234428 0.0 0 0 0      
243 2 2.40007764868259 84.35431937732056 -139.77134582913982 1.9725 0 0 0      
244 3 -1.1999611756587 82.384519858891 -139.8745258039147 1.9725 0 0 0      
245 3 -1.1999611756587 84.45749935209545 -141.7411453475694 1.9725 0 0 0      
246 3 -1.1999611756587 84.35431937732056 -139.77134582913982 0.0 0 0 0      
247 1 1.20010353753236 86.42729887052508 -141.6379653727945 0.0 0 0 0      
248 2 2.40007764868259 88.29391841417981 -139.56498587959004 1.9725 0 0 0      
249 3 -1.1999611756587 86.32411889575019 -139.66816585436493 1.9725 0 0 0      
250 3 -1.1999611756587 88.39709838895465 -141.5347853980196 1.9725 0 0 0      
251 3 -1.1999611756587 88.29391841417981 -139.56498587959004 0.0 0 0 0      
252 1 1.20010353753236 90.36689790738428 -141.43160542324472 0.0 0 0 0      
253 2 2.40007764868259 92.23351745103896 -139.3586259300403 1.9725 0 0 0      
254 3 -1.1999611756587 90.26371793260938 -139.46180590481515 1.9725 0 0 0      
255 3 -1.1999611756587 92.33669742581384 -141.32842544846986 1.9725 0 0 0      
256 3 -1.1999611756587 92.23351745103896 -139.3586259300403 0.0 0 0 0      
257 1 1.20010353753236 94.3064969442434 -141.22524547369497 0.0 0 0 0      
258 2 2.40007764868259 96.17311648789814 -139.1522659804905 1.9725 0 0 0      
259 3 -1.1999611756587 94.20331696946852 -139.2554459552654 1.9725 0 0 0      
260 3 -1.1999611756587 96.27629646267305 -141.12206549892008 1.9725 0 0 0      
261 3 -1.1999611756587 96.17311648789814 -139.1522659804905 0.0 0 0 0      
262 1 1.20010353753236 98.24609598110266 -141.0188855241452 0.0 0 0 0      
263 2 2.40007764868259 100.11271552475732 -138.94590603094076 1.9725 0 0 0      
264 3 -1.1999611756587 98.14291600632777 -139.04908600571562 1.9725 0 0 0      
265 3 -1.1999611756587 100.21589549953222 -140.91570554937033 1.9725 0 0 0      
266 3 -1.1999611756587 100.11271552475732 -138.94590603094076 0.0 0 0 0      
267 1 1.20010353753236 102.1856950179618 -140.81252557459544 0.0 0 0 0      
268 2 2.40007764868259 104.05231456161648 -138.73954608139098 1.9725 0 0 0      
269 3 -1.1999611756587 102.0825150431869 -138.84272605616587 1.9725 0 0 0      
270 3 -1.1999611756587 104.15549453639136 -140.70934559982055 1.9725 0 0 0      
271 3 -1.1999611756587 104.05231456161648 -138.73954608139098 0.0 0 0 0      
272 1 1.20010353753236 106.12529405482098 -140.60616562504566 0.0 0 0 0      
273 2 2.40007764868259 107.99191359847572 -138.5331861318412 1.9725 0 0 0      
274 3 -1.1999611756587 106.02211408004617 -138.6363661066161 1.9725 0 0 0      
275 3 -1.1999611756587 108.0950935732506 -140.50298565027077 1.9725 0 0 0      
276 3 -1.1999611756587 107.99191359847572 -138.5331861318412 0.0 0 0 0      
277 1 1.20010353753236 110.06489309168018 -140.3998056754959 0.0 0 0 0      
278 2 2.40007764868259 111.93151263533484 -138.32682618229146 1.9725 0 0 0      
279 3 -1.1999611756587 109.96171311690529 -138.43000615706634 1.9725 0 0 0      
280 3 -1.1999611756587 112.03469261010974 -140.29662570072102 1.9725 0 0 0      
281 3 -1.1999611756587 111.93151263533484 -138.32682618229146 0.0 0 0 0      
282 1 1.20010353753236 114.00449212853935 -140.19344572594613 0.0 0 0 0      
283 2 2.40007764868259 115.8711116721941 -138.12046623274168 1.9725 0 0 0      
284 3 -1.1999611756587 113.90131215376448 -138.22364620751657 1.9725 0 0 0      
285 3 -1.1999611756587 115.97429164696894 -140.09026575117124 1.9725 0 0 0      
286 3 -1.1999611756587 115.8711116721941 -138.12046623274168 0.0 0 0 0      
287 1 1.20010353753236 117.94409116539856 -139.98708577639636 0.0 0 0 0      
288 2 2.40007764868259 119.81071070905324 -137.91410628319193 1.9725 0 0 0      
289 3 -1.1999611756587 117.84091119062369 -138.0172862579668 1.9725 0 0 0      
290 3 -1.1999611756587 119.91389068382811 -139.8839058016215 1.9725 0 0 0      
291 3 -1.1999611756587 119.81071070905324 -137.91410628319193 0.0 0 0 0      
292 1 1.20010353753236 121.88369020225775 -139.7807258268466 0.0 0 0 0      
293 2 2.40007764868259 123.75030974591245 -137.70774633364215 1.9725 0 0 0      
294 3 -1.1999611756587 121.78051022748286 -137.81092630841704 1.9725 0 0 0      
295 3 -1.1999611756587 123.85348972068732 -139.67754585207172 1.9725 0 0 0      
296 3 -1.1999611756587 123.75030974591245 -137.70774633364215 0.0 0 0 0      
297 1 1.20010353753236 125.82328923911696 -139.57436587729683 0.0 0 0 0      
298 2 2.40007764868259 127.68990878277162 -137.50138638409237 1.9725 0 0 0      
299 3 -1.1999611756587 125.72010926434206 -137.60456635886726 1.9725 0 0 0      
300 3 -1.1999611756587 127.79308875754651 -139.47118590252194 1.9725 0 0 0      
301 3 -1.1999611756587 127.68990878277162 -137.50138638409237 0.0 0 0 0      
302 1 1.20010353753236 129.76288827597608 -139.36800592774708 0.0 0 0 0      
303 2 2.40007764868259 131.62950781963082 -137.29502643454262 1.9725 0 0 0      
304 3 -1.1999611756587 129.6597083012012 -137.3982064093175 1.9725 0 0 0      
305 3 -1.1999611756587 131.7326877944057 -139.2648259529722 1.9725 0 0 0      
306 3 -1.1999611756587 131.62950781963082 -137.29502643454262 0.0 0 0 0      
307 1 1.20010353753236 133.70248731283533 -139.1616459781973 0.0 0 0 0      
308 2 2.40007764868259 135.56910685649 -137.08866648499284 1.9725 0 0 0      
309 3 -1.1999611756587 133.59930733806044 -137.19184645976773 1.9725 0 0 0      
310 3 -1.1999611756587 135.6722868312649 -139.0584660034224 1.9725 0 0 0      
311 3 -1.1999611756587 135.56910685649 -137.08866648499284 0.0 0 0 0      
312 1 1.20010353753236 137.64208634969447 -138.95528602864752 0.0 0 0 0      
313 2 2.40007764868259 139.50870589334914 -136.8823065354431 1.9725 0 0 0      
314 3 -1.1999611756587 137.53890637491958 -136.98548651021795 1.9725 0 0 0      
315 3 -1.1999611756587 139.61188586812403 -138.85210605387266 1.9725 0 0 0      
316 3 -1.1999611756587 139.50870589334914 -136.8823065354431 0.0 0 0 0      
317 1 1.20010353753236 141.58168538655366 -138.74892607909777 0.0 0 0 0      
318 2 2.40007764868259 143.4483049302084 -136.6759465858933 1.9725 0 0 0      
319 3 -1.1999611756587 141.47850541177877 -136.7791265606682 1.9725 0 0 0      
320 3 -1.1999611756587 143.55148490498328 -138.64574610432288 1.9725 0 0 0      
321 3 -1.1999611756587 143.4483049302084 -136.6759465858933 0.0 0 0 0      
322 1 1.20010353753236 145.52128442341285 -138.542566129548 0.0 0 0 0      
323 2 2.40007764868259 147.38790396706753 -136.46958663634354 1.9725 0 0 0      
324 3 -1.1999611756587 145.41810444863796 -136.57276661111842 1.9725 0 0 0      
325 3 -1.1999611756587 147.49108394184242 -138.4393861547731 1.9725 0 0 0      
326 3 -1.1999611756587 147.38790396706753 -136.46958663634354 0.0 0 0 0      
327 1 1.20010353753236 149.460883460272 -138.33620617999824 0.0 0 0 0      
328 2 2.40007764868259 151.32750300392678 -136.2632266867938 1.9725 0 0 0      
329 3 -1.1999611756587 149.3577034854971 -136.36640666156867 1.9725 0 0 0      
330 3 -1.1999611756587 151.43068297870167 -138.23302620522335 1.9725 0 0 0      
331 3 -1.1999611756587 151.32750300392678 -136.2632266867938 0.0 0 0 0      
332 1 1.20010353753236 153.40048249713124 -138.12984623044846 0.0 0 0 0      
333 2 2.40007764868259 155.26710204078591 -136.056866737244 1.9725 0 0 0      
334 3 -1.1999611756587 153.29730252235635 -136.1600467120189 1.9725 0 0 0      
335 3 -1.1999611756587 155.3702820155608 -138.02666625567358 1.9725 0 0 0      
336 3 -1.1999611756587 155.26710204078591 -136.056866737244 0.0 0 0 0      
337 1 1.20010353753236 157.34008153399037 -137.9234862808987 0.0 0 0 0      
338 2 2.40007764868259 159.2067010776451 -135.85050678769426 1.9725 0 0 0      
339 3 -1.1999611756587 157.23690155921548 -135.95368676246912 1.9725 0 0 0      
340 3 -1.1999611756587 159.30988105242 -137.82030630612385 1.9725 0 0 0      
341 3 -1.1999611756587 159.2067010776451 -135.85050678769426 0.0 0 0 0      
342 1 1.20010353753236 161.27968057084956 -137.71712633134894 0.0 0 0 0      
343 2 2.40007764868259 163.1463001145043 -135.64414683814448 1.9725 0 0 0      
344 3 -1.1999611756587 161.17650059607467 -135.74732681291937 1.9725 0 0 0      
345 3 -1.1999611756587 163.2494800892792 -137.61394635657405 1.9725 0 0 0      
346 3 -1.1999611756587 163.1463001145043 -135.64414683814448 0.0 0 0 0      
347 1 1.20010353753236 165.21927960770876 -137.51076638179916 0.0 0 0 0      
348 2 2.40007764868259 167.08589915136344 -135.4377868885947 1.9725 0 0 0      
349 3 -1.1999611756587 165.11609963293387 -135.5409668633696 1.9725 0 0 0      
350 3 -1.1999611756587 167.18907912613832 -137.40758640702427 1.9725 0 0 0      
351 3 -1.1999611756587 167.08589915136344 -135.4377868885947 0.0 0 0 0      
352 1 1.20010353753236 169.15887864456795 -137.3044064322494 0.0 0 0 0      
353 2 2.40007764868259 171.02549818822268 -135.23142693904495 1.9725 0 0 0      
354 3 -1.1999611756587 169.05569866979306 -135.33460691381984 1.9725 0 0 0      
355 3 -1.1999611756587 171.12867816299757 -137.20122645747452 1.9725 0 0 0      
356 3 -1.1999611756587 171.02549818822268 -135.23142693904495 0.0 0 0 0      
357 1 1.20010353753236 173.09847768142714 -137.09804648269963 0.0 0 0 0      
358 2 2.40007764868259 174.96509722508182 -135.02506698949517 1.9725 0 0 0      
359 3 -1.1999611756587 172.99529770665225 -135.12824696427006 1.9725 0 0 0      
360 3 -1.1999611756587 175.0682771998567 -136.99486650792474 1.9725 0 0 0      
361 3 -1.1999611756587 174.96509722508182 -135.02506698949517 0.0 0 0 0      
362 1 1.20010353753236 177.03807671828628 -136.89168653314985 0.0 0 0 0      
363 2 2.40007764868259 178.904696261941 -134.81870703994542 1.9725 0 0 0      
364 3 -1.1999611756587 176.9348967435114 -134.92188701472028 1.9725 0 0 0      
365 3 -1.1999611756587 179.0078762367159 -136.788506558375 1.9725 0 0 0      
366 3 -1.1999611756587 178.904696261941 -134.81870703994542 0.0 0 0 0      
367 1 1.20010353753236 180.97767575514555 -136.6853265836001 0.0 0 0 0      
368 2 2.40007764868259 182.8442952988002 -134.61234709039564 1.9725 0 0 0      
369 3 -1.1999611756587 180.87449578037064 -134.71552706517053 1.9725 0 0 0      
370 3 -1.1999611756587 182.9474752735751 -136.5821466088252 1.9725 0 0 0      
371 3 -1.1999611756587 182.8442952988002 -134.61234709039564 0.0 0 0 0      
372 1 1.20010353753236 184.91727479200463 -136.47896663405032 0.0 0 0 0      
373 2 2.40007764868259 186.7838943356594 -134.40598714084587 1.9725 0 0 0      
374 3 -1.1999611756587 184.81409481722977 -134.50916711562076 1.9725 0 0 0      
375 3 -1.1999611756587 186.8870743104343 -136.37578665927543 1.9725 0 0 0      