LAMMPS data file via write_data, version 19 Nov 2024, timestep = 0, units =.1 metal
              
13878 atoms             
3 atom types            
              
0 237.520453066678 xlo xhi           
-47.5040906133356 47.5040906133356 ylo yhi           
0 7.89 zlo zhi           
              
Masses              
              
1 87.62             
2 47.867             
3 15.999             
              
Atoms # charge            
              
1 2 2.40077962577963 194.06277255614208 -23.363683174626694 1.9725 0 0 0      
2 3 -1.1996106368251 192.0929730377125 -23.466863149401576 1.9725 0 0 0      
3 3 -1.1996106368251 194.06277255614208 -23.363683174626694 0.0 0 0 0      
4 2 2.40077962577963 198.00237159300127 -23.157323225076922 1.9725 0 0 0      
5 3 -1.1996106368251 196.03257207457165 -23.260503199851804 1.9725 0 0 0      
6 3 -1.1996106368251 198.00237159300127 -23.157323225076922 0.0 0 0 0      
7 2 2.40077962577963 201.9419706298605 -22.950963275527158 1.9725 0 0 0      
8 3 -1.1996106368251 199.9721711114309 -23.05414325030204 1.9725 0 0 0      
9 3 -1.1996106368251 201.9419706298605 -22.950963275527158 0.0 0 0 0      
10 2 2.40077962577963 205.8815696667196 -22.744603325977387 1.9725 0 0 0      
11 3 -1.1996106368251 203.91177014829003 -22.847783300752276 1.9725 0 0 0      
12 3 -1.1996106368251 205.8815696667196 -22.744603325977387 0.0 0 0 0      
13 2 2.40077962577963 209.82116870357885 -22.53824337642763 1.9725 0 0 0      
14 3 -1.1996106368251 207.8513691851492 -22.641423351202505 1.9725 0 0 0      
15 3 -1.1996106368251 209.82116870357885 -22.53824337642763 0.0 0 0 0      
16 2 2.40077962577963 213.760767740438 -22.33188342687786 1.9725 0 0 0      
17 3 -1.1996106368251 211.7909682220084 -22.43506340165274 1.9725 0 0 0      
18 3 -1.1996106368251 213.760767740438 -22.33188342687786 0.0 0 0 0      
19 2 2.40077962577963 217.70036677729723 -22.125523477328088 1.9725 0 0 0      
20 3 -1.1996106368251 215.7305672588676 -22.22870345210297 1.9725 0 0 0      
21 3 -1.1996106368251 217.70036677729723 -22.125523477328088 0.0 0 0 0      
22 2 2.40077962577963 221.6399658141564 -21.919163527778323 1.9725 0 0 0      
23 3 -1.1996106368251 219.6701662957268 -22.022343502553205 1.9725 0 0 0      
24 3 -1.1996106368251 221.6399658141564 -21.919163527778323 0.0 0 0 0      
25 2 2.40077962577963 225.5795648510156 -21.71280357822856 1.9725 0 0 0      
26 3 -1.1996106368251 223.60976533258597 -21.81598355300345 1.9725 0 0 0      
27 3 -1.1996106368251 225.5795648510156 -21.71280357822856 0.0 0 0 0      
28 2 2.40077962577963 229.51916388787475 -21.506443628678788 1.9725 0 0 0      
29 3 -1.1996106368251 227.54936436944516 -21.60962360345367 1.9725 0 0 0      
30 3 -1.1996106368251 229.62234386264964 -23.476243147108377 1.9725 0 0 0      
31 3 -1.1996106368251 229.51916388787475 -21.506443628678788 0.0 0 0 0      
32 1 1.2010395010395 231.5921433810792 -23.373063172333495 0.0 0 0 0      
33 2 2.40077962577963 233.45876292473395 -21.300083679129024 1.9725 0 0 0      
34 3 -1.1996106368251 231.48896340630432 -21.403263653903906 1.9725 0 0 0      
35 3 -1.1996106368251 233.56194289950884 -23.269883197558606 1.9725 0 0 0      
36 3 -1.1996106368251 233.45876292473395 -21.300083679129024 0.0 0 0 0      
37 1 1.2010395010395 235.5317424179384 -23.16670322278373 0.0 0 0 0      
38 2 2.40077962577963 237.3983619615931 -21.093723729579253 1.9725 0 0 0      
39 3 -1.1996106368251 235.42856244316351 -21.196903704354135 1.9725 0 0 0      
40 3 -1.1996106368251 237.501541936368 -23.063523248008842 1.9725 0 0 0      
41 3 -1.1996106368251 237.3983619615931 -21.093723729579253 0.0 0 0 0      
42 3 -1.1996106368251 237.3983619615931 -26.41036688375634 3.945 0 0 0      
43 2 2.40077962577963 119.0040309062678 -23.344923179213076 1.9725 0 0 0      
44 3 -1.1996106368251 117.03423138783825 -23.448103153987958 1.9725 0 0 0      
45 3 -1.1996106368251 119.0040309062678 -23.344923179213076 0.0 0 0 0      
46 2 2.40077962577963 122.94362994312696 -23.138563229663305 1.9725 0 0 0      
47 3 -1.1996106368251 120.97383042469738 -23.241743204438187 1.9725 0 0 0      
48 3 -1.1996106368251 122.94362994312696 -23.138563229663305 0.0 0 0 0      
49 2 2.40077962577963 126.8832289799862 -22.93220328011354 1.9725 0 0 0      
50 3 -1.1996106368251 124.91342946155658 -23.03538325488843 1.9725 0 0 0      
51 3 -1.1996106368251 126.8832289799862 -22.93220328011354 0.0 0 0 0      
52 2 2.40077962577963 130.8228280168454 -22.72584333056377 1.9725 0 0 0      
53 3 -1.1996106368251 128.85302849841577 -22.82902330533866 1.9725 0 0 0      
54 3 -1.1996106368251 130.8228280168454 -22.72584333056377 0.0 0 0 0      
55 2 2.40077962577963 134.76242705370458 -22.519483381014005 1.9725 0 0 0      
56 3 -1.1996106368251 132.79262753527496 -22.622663355788887 1.9725 0 0 0      
57 3 -1.1996106368251 134.76242705370458 -22.519483381014005 0.0 0 0 0      
58 2 2.40077962577963 138.70202609056372 -22.31312343146425 1.9725 0 0 0      
59 3 -1.1996106368251 136.73222657213415 -22.416303406239123 1.9725 0 0 0      
60 3 -1.1996106368251 138.70202609056372 -22.31312343146425 0.0 0 0 0      
61 2 2.40077962577963 142.6416251274229 -22.106763481914477 1.9725 0 0 0      
62 3 -1.1996106368251 140.6718256089933 -22.20994345668936 1.9725 0 0 0      
63 3 -1.1996106368251 142.6416251274229 -22.106763481914477 0.0 0 0 0      
64 2 2.40077962577963 146.5812241642821 -21.900403532364706 1.9725 0 0 0      
65 3 -1.1996106368251 144.61142464585254 -22.003583507139588 1.9725 0 0 0      
66 3 -1.1996106368251 146.5812241642821 -21.900403532364706 0.0 0 0 0      
67 2 2.40077962577963 150.5208232011413 -21.694043582814942 1.9725 0 0 0      
68 3 -1.1996106368251 148.55102368271167 -21.797223557589824 1.9725 0 0 0      
69 3 -1.1996106368251 237.29518198681825 -28.380166402185935 5.917499999999999 0 0 0      
70 3 -1.1996106368251 150.5208232011413 -21.694043582814942 0.0 0 0 0      
71 3 -1.1996106368251 235.42856244316351 -26.30718690898148 5.917499999999999 0 0 0      
72 2 2.40077962577963 154.4604222380005 -21.48768363326517 1.9725 0 0 0      
73 3 -1.1996106368251 152.49062271957092 -21.59086360804006 1.9725 0 0 0      
74 3 -1.1996106368251 154.56360221277538 -23.45748315169476 1.9725 0 0 0      
75 3 -1.1996106368251 154.4604222380005 -21.48768363326517 0.0 0 0 0      
76 1 1.2010395010395 156.53340173120495 -23.354303176919878 0.0 0 0 0      
77 2 2.40077962577963 158.40002127485965 -21.281323683715407 1.9725 0 0 0      
78 3 -1.1996106368251 156.43022175643006 -21.38450365849029 1.9725 0 0 0      
79 3 -1.1996106368251 158.50320124963451 -23.251123202144996 1.9725 0 0 0      
80 3 -1.1996106368251 158.40002127485965 -21.281323683715407 0.0 0 0 0      
81 1 1.2010395010395 160.47300076806408 -23.147943227370114 0.0 0 0 0      
82 2 2.40077962577963 162.33962031171887 -21.074963734165642 1.9725 0 0 0      
83 3 -1.1996106368251 160.36982079328925 -21.178143708940524 1.9725 0 0 0      
84 3 -1.1996106368251 162.4428002864937 -23.04476325259524 1.9725 0 0 0      
85 3 -1.1996106368251 162.33962031171887 -21.074963734165642 0.0 0 0 0      
86 1 1.2010395010395 164.41259980492333 -22.94158327782035 0.0 0 0 0      
87 2 2.40077962577963 166.279219348578 -20.86860378461588 1.9725 0 0 0      
88 3 -1.1996106368251 164.30941983014844 -20.97178375939076 1.9725 0 0 0      
89 3 -1.1996106368251 166.3823993233529 -22.83840330304546 1.9725 0 0 0      
90 3 -1.1996106368251 166.279219348578 -20.86860378461588 0.0 0 0 0      
91 1 1.2010395010395 168.35219884178247 -22.73522332827058 0.0 0 0 0      
92 2 2.40077962577963 170.21881838543726 -20.662243835066107 1.9725 0 0 0      
93 3 -1.1996106368251 168.24901886700763 -20.76542380984099 1.9725 0 0 0      
94 3 -1.1996106368251 170.3219983602121 -22.632043353495696 1.9725 0 0 0      
95 3 -1.1996106368251 170.21881838543726 -20.662243835066107 0.0 0 0 0      
96 1 1.2010395010395 172.29179787864166 -22.528863378720807 0.0 0 0 0      
97 2 2.40077962577963 174.1584174222964 -20.455883885516336 1.9725 0 0 0      
98 3 -1.1996106368251 172.18861790386683 -20.559063860291225 1.9725 0 0 0      
99 3 -1.1996106368251 174.26159739707128 -22.425683403945932 1.9725 0 0 0      
100 3 -1.1996106368251 174.1584174222964 -20.455883885516336 0.0 0 0 0      
101 1 1.2010395010395 176.23139691550085 -22.322503429171043 0.0 0 0 0      
102 2 2.40077962577963 178.0980164591556 -20.24952393596657 1.9725 0 0 0      
103 3 -1.1996106368251 176.12821694072596 -20.352703910741454 1.9725 0 0 0      
104 3 -1.1996106368251 178.20119643393042 -22.219323454396168 1.9725 0 0 0      
105 3 -1.1996106368251 178.0980164591556 -20.24952393596657 0.0 0 0 0      
106 1 1.2010395010395 180.17099595236004 -22.11614347962128 0.0 0 0 0      
107 2 2.40077962577963 182.0376154960148 -20.043163986416808 1.9725 0 0 0      
108 3 -1.1996106368251 180.0678159775852 -20.14634396119169 1.9725 0 0 0      
109 3 -1.1996106368251 182.14079547078967 -22.01296350484639 1.9725 0 0 0      
110 3 -1.1996106368251 182.0376154960148 -20.043163986416808 0.0 0 0 0      
111 1 1.2010395010395 184.11059498921924 -21.909783530071515 0.0 0 0 0      
112 2 2.40077962577963 185.977214532874 -19.836804036867036 1.9725 0 0 0      
113 3 -1.1996106368251 184.00741501444435 -19.93998401164192 1.9725 0 0 0      
114 3 -1.1996106368251 186.0803945076488 -21.806603555296626 1.9725 0 0 0      
115 3 -1.1996106368251 185.977214532874 -19.836804036867036 0.0 0 0 0      
116 1 1.2010395010395 188.0501940260784 -21.703423580521743 0.0 0 0 0      
117 2 2.40077962577963 189.9168135697332 -19.63044408731728 1.9725 0 0 0      
118 3 -1.1996106368251 187.94701405130357 -19.733624062092154 1.9725 0 0 0      
119 3 -1.1996106368251 190.019993544508 -21.600243605746854 1.9725 0 0 0      
120 3 -1.1996106368251 189.9168135697332 -19.63044408731728 0.0 0 0 0      
121 1 1.2010395010395 191.9897930629376 -21.49706363097198 0.0 0 0 0      
122 2 2.40077962577963 193.8564126065923 -19.424084137767494 1.9725 0 0 0      
123 3 -1.1996106368251 191.88661308816276 -19.52726411254239 1.9725 0 0 0      
124 3 -1.1996106368251 193.9595925813672 -21.393883656197097 1.9725 0 0 0      
125 3 -1.1996106368251 193.8564126065923 -19.424084137767494 0.0 0 0 0      
126 1 1.2010395010395 195.9293920997968 -21.290703681422208 0.0 0 0 0      
127 2 2.40077962577963 197.79601164345155 -19.217724188217737 1.9725 0 0 0      
128 3 -1.1996106368251 195.82621212502187 -19.320904162992626 1.9725 0 0 0      
129 3 -1.1996106368251 197.8991916182264 -21.187523706647326 1.9725 0 0 0      
130 3 -1.1996106368251 197.79601164345155 -19.217724188217737 0.0 0 0 0      
131 1 1.2010395010395 199.868991136656 -21.084343731872444 0.0 0 0 0      
132 2 2.40077962577963 201.73561068031069 -19.011364238667973 1.9725 0 0 0      
133 3 -1.1996106368251 199.76581116188112 -19.114544213442855 1.9725 0 0 0      
134 3 -1.1996106368251 201.8387906550856 -20.981163757097562 1.9725 0 0 0      
135 3 -1.1996106368251 201.73561068031069 -19.011364238667973 0.0 0 0 0      
136 1 1.2010395010395 203.80859017351517 -20.87798378232268 0.0 0 0 0      
137 2 2.40077962577963 205.67520971716988 -18.8050042891182 1.9725 0 0 0      
138 3 -1.1996106368251 203.70541019874025 -18.908184263893084 1.9725 0 0 0      
139 3 -1.1996106368251 205.7783896919447 -20.774803807547798 1.9725 0 0 0      
140 3 -1.1996106368251 205.67520971716988 -18.8050042891182 0.0 0 0 0      
141 1 1.2010395010395 207.74818921037436 -20.67162383277291 0.0 0 0 0      
142 2 2.40077962577963 209.61480875402907 -18.598644339568438 1.9725 0 0 0      
143 3 -1.1996106368251 207.6450092355995 -18.70182431434332 1.9725 0 0 0      
144 3 -1.1996106368251 209.717988728804 -20.568443857998027 1.9725 0 0 0      
145 3 -1.1996106368251 209.61480875402907 -18.598644339568438 0.0 0 0 0      
146 1 1.2010395010395 211.68778824723356 -20.465263883223145 0.0 0 0 0      
147 2 2.40077962577963 213.55440779088823 -18.392284390018666 1.9725 0 0 0      
148 3 -1.1996106368251 211.58460827245864 -18.495464364793555 1.9725 0 0 0      
149 3 -1.1996106368251 213.6575877656631 -20.36208390844827 1.9725 0 0 0      
150 3 -1.1996106368251 213.55440779088823 -18.392284390018666 0.0 0 0 0      
151 1 1.2010395010395 215.62738728409272 -20.258903933673373 0.0 0 0 0      
152 2 2.40077962577963 217.49400682774743 -18.18592444046891 1.9725 0 0 0      
153 3 -1.1996106368251 215.5242073093179 -18.289104415243784 1.9725 0 0 0      
154 3 -1.1996106368251 217.59718680252237 -20.155723958898484 1.9725 0 0 0      
155 3 -1.1996106368251 217.49400682774743 -18.18592444046891 0.0 0 0 0      
156 1 1.2010395010395 219.5669863209519 -20.05254398412361 0.0 0 0 0      
157 2 2.40077962577963 221.4336058646066 -17.979564490919138 1.9725 0 0 0      
158 3 -1.1996106368251 219.46380634617705 -18.08274446569402 1.9725 0 0 0      
159 3 -1.1996106368251 221.53678583938148 -19.949364009348727 1.9725 0 0 0      
160 3 -1.1996106368251 221.4336058646066 -17.979564490919138 0.0 0 0 0      
161 1 1.2010395010395 223.50658535781105 -19.846184034573845 0.0 0 0 0      
162 2 2.40077962577963 225.37320490146584 -17.773204541369374 1.9725 0 0 0      
163 3 -1.1996106368251 223.40340538303624 -17.876384516144256 1.9725 0 0 0      
164 3 -1.1996106368251 225.47638487624067 -19.743004059798956 1.9725 0 0 0      
165 3 -1.1996106368251 225.37320490146584 -17.773204541369374 0.0 0 0 0      
166 1 1.2010395010395 227.44618439467024 -19.639824085024074 0.0 0 0 0      
167 2 2.40077962577963 229.31280393832495 -17.566844591819603 1.9725 0 0 0      
168 3 -1.1996106368251 227.3430044198954 -17.670024566594485 1.9725 0 0 0      
169 3 -1.1996106368251 229.41598391309984 -19.5366441102492 1.9725 0 0 0      
170 3 -1.1996106368251 229.31280393832495 -17.566844591819603 0.0 0 0 0      
171 1 1.2010395010395 231.38578343152943 -19.43346413547431 0.0 0 0 0      
172 2 2.40077962577963 233.25240297518425 -17.36048464226984 1.9725 0 0 0      
173 3 -1.1996106368251 231.2826034567546 -17.463664617044728 1.9725 0 0 0      
174 3 -1.1996106368251 233.35558294995903 -19.330284160699428 1.9725 0 0 0      
175 3 -1.1996106368251 233.25240297518425 -17.36048464226984 0.0 0 0 0      
176 1 1.2010395010395 235.32538246838865 -19.22710418592454 0.0 0 0 0      
177 2 2.40077962577963 237.19200201204336 -17.154124692720067 1.9725 0 0 0      
178 3 -1.1996106368251 235.2222024936138 -17.257304667494957 1.9725 0 0 0      
179 3 -1.1996106368251 237.29518198681825 -19.123924211149657 1.9725 0 0 0      
180 3 -1.1996106368251 237.19200201204336 -17.154124692720067 0.0 0 0 0      
181 2 2.40077962577963 237.3983619615931 -26.41036688375634 5.917499999999999 0 0 0      
182 1 1.2010395010395 235.32538246838865 -28.276986427411074 3.945 0 0 0      
183 3 -1.1996106368251 233.45876292473395 -26.20400693420659 3.945 0 0 0      
184 3 -1.1996106368251 233.35558294995903 -28.173806452636185 5.917499999999999 0 0 0      
185 3 -1.1996106368251 231.48896340630432 -26.1008269594317 5.917499999999999 0 0 0      
186 2 2.40077962577963 43.94528925639355 -23.32616318379946 1.9725 0 0 0      
187 3 -1.1996106368251 41.975489737963926 -23.42934315857434 1.9725 0 0 0      
188 3 -1.1996106368251 43.94528925639355 -23.32616318379946 0.0 0 0 0      
189 2 2.40077962577963 47.884888293252686 -23.119803234249694 1.9725 0 0 0      
190 3 -1.1996106368251 45.91508877482312 -23.222983209024576 1.9725 0 0 0      
191 3 -1.1996106368251 47.884888293252686 -23.119803234249694 0.0 0 0 0      
192 2 2.40077962577963 51.82448733011188 -22.913443284699923 1.9725 0 0 0      
193 3 -1.1996106368251 49.85468781168231 -23.016623259474805 1.9725 0 0 0      
194 3 -1.1996106368251 51.82448733011188 -22.913443284699923 0.0 0 0 0      
195 2 2.40077962577963 55.76408636697107 -22.70708333515016 1.9725 0 0 0      
196 3 -1.1996106368251 53.7942868485415 -22.81026330992505 1.9725 0 0 0      
197 3 -1.1996106368251 55.76408636697107 -22.70708333515016 0.0 0 0 0      
198 2 2.40077962577963 59.70368540383026 -22.500723385600388 1.9725 0 0 0      
199 3 -1.1996106368251 57.733885885400696 -22.603903360375277 1.9725 0 0 0      
200 3 -1.1996106368251 59.70368540383026 -22.500723385600388 0.0 0 0 0      
201 2 2.40077962577963 63.643284440689456 -22.294363436050624 1.9725 0 0 0      
202 3 -1.1996106368251 61.67348492225989 -22.397543410825506 1.9725 0 0 0      
203 3 -1.1996106368251 63.643284440689456 -22.294363436050624 0.0 0 0 0      
204 2 2.40077962577963 67.58288347754865 -22.08800348650086 1.9725 0 0 0      
205 3 -1.1996106368251 65.61308395911902 -22.19118346127574 1.9725 0 0 0      
206 3 -1.1996106368251 67.58288347754865 -22.08800348650086 0.0 0 0 0      
207 2 2.40077962577963 71.52248251440784 -21.88164353695109 1.9725 0 0 0      
208 3 -1.1996106368251 69.55268299597822 -21.98482351172597 1.9725 0 0 0      
209 3 -1.1996106368251 71.52248251440784 -21.88164353695109 0.0 0 0 0      
210 2 2.40077962577963 233.45876292473395 -26.20400693420659 5.917499999999999 0 0 0      
211 2 2.40077962577963 75.46208155126698 -21.675283587401324 1.9725 0 0 0      
212 3 -1.1996106368251 73.49228203283741 -21.778463562176206 1.9725 0 0 0      
213 1 1.2010395010395 231.38578343152943 -28.070626477861296 3.945 0 0 0      
214 3 -1.1996106368251 75.46208155126698 -21.675283587401324 0.0 0 0 0      
215 3 -1.1996106368251 229.51916388787475 -25.99764698465681 3.945 0 0 0      
216 2 2.40077962577963 79.40168058812617 -21.46892363785156 1.9725 0 0 0      
217 3 -1.1996106368251 77.4318810696966 -21.572103612626442 1.9725 0 0 0      
218 3 -1.1996106368251 79.50486056290106 -23.43872315628115 1.9725 0 0 0      
219 3 -1.1996106368251 79.40168058812617 -21.46892363785156 0.0 0 0 0      
220 1 1.2010395010395 81.47466008133068 -23.33554318150626 0.0 0 0 0      
221 2 2.40077962577963 83.34127962498536 -21.26256368830179 1.9725 0 0 0      
222 3 -1.1996106368251 81.3714801065558 -21.365743663076678 1.9725 0 0 0      
223 3 -1.1996106368251 83.44445959976025 -23.232363206731378 1.9725 0 0 0      
224 3 -1.1996106368251 83.34127962498536 -21.26256368830179 0.0 0 0 0      
225 1 1.2010395010395 85.41425911818982 -23.129183231956496 0.0 0 0 0      
226 2 2.40077962577963 87.28087866184455 -21.056203738752025 1.9725 0 0 0      
227 3 -1.1996106368251 85.31107914341499 -21.159383713526907 1.9725 0 0 0      
228 3 -1.1996106368251 87.38405863661944 -23.026003257181614 1.9725 0 0 0      
229 3 -1.1996106368251 87.28087866184455 -21.056203738752025 0.0 0 0 0      
230 1 1.2010395010395 89.35385815504901 -22.922823282406732 0.0 0 0 0      
231 2 2.40077962577963 91.22047769870376 -20.849843789202254 1.9725 0 0 0      
232 3 -1.1996106368251 89.25067818027418 -20.95302376397715 1.9725 0 0 0      
233 3 -1.1996106368251 91.32365767347864 -22.819643307631843 1.9725 0 0 0      
234 3 -1.1996106368251 91.22047769870376 -20.849843789202254 0.0 0 0 0      
235 1 1.2010395010395 93.2934571919082 -22.716463332856968 0.0 0 0 0      
236 2 2.40077962577963 95.16007673556294 -20.64348383965249 1.9725 0 0 0      
237 3 -1.1996106368251 93.19027721713331 -20.74666381442737 1.9725 0 0 0      
238 3 -1.1996106368251 95.26325671033776 -22.61328335808208 1.9725 0 0 0      
239 3 -1.1996106368251 95.16007673556294 -20.64348383965249 0.0 0 0 0      
240 1 1.2010395010395 97.2330562287674 -22.510103383307197 0.0 0 0 0      
241 2 2.40077962577963 99.09967577242212 -20.437123890102725 1.9725 0 0 0      
242 3 -1.1996106368251 97.1298762539925 -20.540303864877608 1.9725 0 0 0      
243 3 -1.1996106368251 99.20285574719696 -22.406923408532315 1.9725 0 0 0      
244 3 -1.1996106368251 99.09967577242212 -20.437123890102725 0.0 0 0 0      
245 1 1.2010395010395 101.1726552656266 -22.303743433757425 0.0 0 0 0      
246 2 2.40077962577963 103.03927480928128 -20.230763940552954 1.9725 0 0 0      
247 3 -1.1996106368251 101.0694752908517 -20.333943915327836 1.9725 0 0 0      
248 3 -1.1996106368251 103.14245478405616 -22.200563458982543 1.9725 0 0 0      
249 3 -1.1996106368251 103.03927480928128 -20.230763940552954 0.0 0 0 0      
250 1 1.2010395010395 105.11225430248578 -22.097383484207654 0.0 0 0 0      
251 2 2.40077962577963 106.97887384614046 -20.02440399100319 1.9725 0 0 0      
252 3 -1.1996106368251 105.00907432771088 -20.12758396577808 1.9725 0 0 0      
253 3 -1.1996106368251 107.08205382091536 -21.99420350943278 1.9725 0 0 0      
254 3 -1.1996106368251 106.97887384614046 -20.02440399100319 0.0 0 0 0      
255 1 1.2010395010395 109.05185333934496 -21.891023534657897 0.0 0 0 0      
256 2 2.40077962577963 110.91847288299964 -19.818044041453426 1.9725 0 0 0      
257 3 -1.1996106368251 108.94867336457008 -19.921224016228308 1.9725 0 0 0      
258 3 -1.1996106368251 111.02165285777454 -21.787843559883008 1.9725 0 0 0      
259 3 -1.1996106368251 110.91847288299964 -19.818044041453426 0.0 0 0 0      
260 1 1.2010395010395 112.99145237620412 -21.684663585108126 0.0 0 0 0      
261 2 2.40077962577963 114.85807191985884 -19.611684091903655 1.9725 0 0 0      
262 3 -1.1996106368251 112.88827240142928 -19.714864066678537 1.9725 0 0 0      
263 3 -1.1996106368251 114.96125189463372 -21.581483610333244 1.9725 0 0 0      
264 3 -1.1996106368251 114.85807191985884 -19.611684091903655 0.0 0 0 0      
265 1 1.2010395010395 116.93105141306336 -21.478303635558362 0.0 0 0 0      
266 2 2.40077962577963 118.79767095671804 -19.40532414235389 1.9725 0 0 0      
267 3 -1.1996106368251 116.82787143828848 -19.508504117128773 1.9725 0 0 0      
268 3 -1.1996106368251 118.90085093149293 -21.37512366078348 1.9725 0 0 0      
269 3 -1.1996106368251 118.79767095671804 -19.40532414235389 0.0 0 0 0      
270 1 1.2010395010395 120.8706504499225 -21.271943686008598 0.0 0 0 0      
271 2 2.40077962577963 122.73726999357724 -19.19896419280412 1.9725 0 0 0      
272 3 -1.1996106368251 120.7674704751476 -19.30214416757901 1.9725 0 0 0      
273 3 -1.1996106368251 122.84044996835206 -21.16876371123371 1.9725 0 0 0      
274 3 -1.1996106368251 122.73726999357724 -19.19896419280412 0.0 0 0 0      
275 1 1.2010395010395 124.81024948678169 -21.065583736458827 0.0 0 0 0      
276 2 2.40077962577963 126.67686903043642 -18.992604243254355 1.9725 0 0 0      
277 3 -1.1996106368251 124.70706951200684 -19.095784218029237 1.9725 0 0 0      
278 3 -1.1996106368251 126.78004900521132 -20.962403761683944 1.9725 0 0 0      
279 3 -1.1996106368251 126.67686903043642 -18.992604243254355 0.0 0 0 0      
280 1 1.2010395010395 128.74984852364088 -20.85922378690907 0.0 0 0 0      
281 2 2.40077962577963 130.6164680672956 -18.7862442937046 1.9725 0 0 0      
282 3 -1.1996106368251 128.646668548866 -18.88942426847948 1.9725 0 0 0      
283 3 -1.1996106368251 130.7196480420705 -20.756043812134173 1.9725 0 0 0      
284 3 -1.1996106368251 130.6164680672956 -18.7862442937046 0.0 0 0 0      
285 1 1.2010395010395 132.68944756050007 -20.652863837359284 0.0 0 0 0      
286 2 2.40077962577963 134.5560671041548 -18.57988434415482 1.9725 0 0 0      
287 3 -1.1996106368251 132.58626758572518 -18.68306431892971 1.9725 0 0 0      
288 3 -1.1996106368251 134.6592470789297 -20.54968386258441 1.9725 0 0 0      
289 3 -1.1996106368251 134.5560671041548 -18.57988434415482 0.0 0 0 0      
290 1 1.2010395010395 136.62904659735926 -20.446503887809527 0.0 0 0 0      
291 2 2.40077962577963 138.49566614101394 -18.373524394605056 1.9725 0 0 0      
292 3 -1.1996106368251 136.52586662258437 -18.476704369379938 1.9725 0 0 0      
293 3 -1.1996106368251 138.59884611578883 -20.343323913034645 1.9725 0 0 0      
294 3 -1.1996106368251 138.49566614101394 -18.373524394605056 0.0 0 0 0      
295 1 1.2010395010395 140.5686456342184 -20.240143938259763 0.0 0 0 0      
296 2 2.40077962577963 142.4352651778731 -18.167164445055285 1.9725 0 0 0      
297 3 -1.1996106368251 140.4654656594435 -18.270344419830174 1.9725 0 0 0      
298 3 -1.1996106368251 142.53844515264802 -20.136963963484888 1.9725 0 0 0      
299 3 -1.1996106368251 142.4352651778731 -18.167164445055285 0.0 0 0 0      
300 1 1.2010395010395 144.50824467107765 -20.03378398871 0.0 0 0 0      
301 2 2.40077962577963 146.37486421473233 -17.960804495505528 1.9725 0 0 0      
302 3 -1.1996106368251 144.40506469630276 -18.063984470280403 1.9725 0 0 0      
303 3 -1.1996106368251 146.47804418950722 -19.93060401393511 1.9725 0 0 0      
304 3 -1.1996106368251 146.37486421473233 -17.960804495505528 0.0 0 0 0      
305 1 1.2010395010395 148.44784370793678 -19.827424039160228 0.0 0 0 0      
306 2 2.40077962577963 150.31446325159152 -17.754444545955756 1.9725 0 0 0      
307 3 -1.1996106368251 148.3446637331619 -17.85762452073064 1.9725 0 0 0      
308 3 -1.1996106368251 150.4176432263664 -19.724244064385346 1.9725 0 0 0      
309 3 -1.1996106368251 150.31446325159152 -17.754444545955756 0.0 0 0 0      
310 1 1.2010395010395 152.38744274479603 -19.621064089610464 0.0 0 0 0      
311 2 2.40077962577963 154.2540622884507 -17.548084596405985 1.9725 0 0 0      
312 3 -1.1996106368251 152.28426277002114 -17.651264571180867 1.9725 0 0 0      
313 3 -1.1996106368251 154.3572422632256 -19.517884114835574 1.9725 0 0 0      
314 3 -1.1996106368251 154.2540622884507 -17.548084596405985 0.0 0 0 0      
315 1 1.2010395010395 156.32704178165517 -19.414704140060692 0.0 0 0 0      
316 2 2.40077962577963 158.19366132530985 -17.341724646856214 1.9725 0 0 0      
317 3 -1.1996106368251 156.22386180688028 -17.444904621631103 1.9725 0 0 0      
318 3 -1.1996106368251 158.29684130008474 -19.31152416528581 1.9725 0 0 0      
319 3 -1.1996106368251 158.19366132530985 -17.341724646856214 0.0 0 0 0      
320 1 1.2010395010395 160.26664081851436 -19.20834419051093 0.0 0 0 0      
321 2 2.40077962577963 162.1332603621691 -17.135364697306457 1.9725 0 0 0      
322 3 -1.1996106368251 160.16346084373947 -17.23854467208134 1.9725 0 0 0      
323 3 -1.1996106368251 162.236440336944 -19.105164215736046 1.9725 0 0 0      
324 3 -1.1996106368251 162.1332603621691 -17.135364697306457 0.0 0 0 0      
325 1 1.2010395010395 164.20623985537355 -19.001984240961157 0.0 0 0 0      
326 2 2.40077962577963 166.07285939902823 -16.929004747756686 1.9725 0 0 0      
327 3 -1.1996106368251 164.10305988059866 -17.032184722531568 1.9725 0 0 0      
328 3 -1.1996106368251 166.17603937380312 -18.898804266186275 1.9725 0 0 0      
329 3 -1.1996106368251 166.07285939902823 -16.929004747756686 0.0 0 0 0      
330 1 1.2010395010395 168.14583889223275 -18.7956242914114 0.0 0 0 0      
331 2 2.40077962577963 170.01245843588748 -16.72264479820692 1.9725 0 0 0      
332 3 -1.1996106368251 168.04265891745786 -16.825824772981804 1.9725 0 0 0      
333 3 -1.1996106368251 170.11563841066237 -18.692444316636518 1.9725 0 0 0      
334 3 -1.1996106368251 170.01245843588748 -16.72264479820692 0.0 0 0 0      
335 1 1.2010395010395 172.08543792909194 -18.58926434186163 0.0 0 0 0      
336 2 2.40077962577963 173.95205747274662 -16.516284848657158 1.9725 0 0 0      
337 3 -1.1996106368251 171.98225795431705 -16.61946482343204 1.9725 0 0 0      
338 3 -1.1996106368251 174.0552374475215 -18.48608436708674 1.9725 0 0 0      
339 3 -1.1996106368251 173.95205747274662 -16.516284848657158 0.0 0 0 0      
340 1 1.2010395010395 176.02503696595107 -18.382904392311858 0.0 0 0 0      
341 2 2.40077962577963 177.8916565096058 -16.309924899107386 1.9725 0 0 0      
342 3 -1.1996106368251 175.92185699117618 -16.41310487388227 1.9725 0 0 0      
343 3 -1.1996106368251 177.9948364843807 -18.279724417536976 1.9725 0 0 0      
344 3 -1.1996106368251 177.8916565096058 -16.309924899107386 0.0 0 0 0      
345 1 1.2010395010395 179.96463600281032 -18.176544442762093 0.0 0 0 0      
346 2 2.40077962577963 181.831255546465 -16.103564949557615 1.9725 0 0 0      
347 3 -1.1996106368251 179.86145602803543 -16.206744924332504 1.9725 0 0 0      
348 3 -1.1996106368251 181.9344355212399 -18.073364467987204 1.9725 0 0 0      
349 3 -1.1996106368251 181.831255546465 -16.103564949557615 0.0 0 0 0      
350 1 1.2010395010395 183.90423503966943 -17.970184493212322 0.0 0 0 0      
351 2 2.40077962577963 185.7708545833242 -15.897205000007844 1.9725 0 0 0      
352 3 -1.1996106368251 183.80105506489457 -16.00038497478274 1.9725 0 0 0      
353 3 -1.1996106368251 185.87403455809908 -17.86700451843744 1.9725 0 0 0      
354 3 -1.1996106368251 185.7708545833242 -15.897205000007844 0.0 0 0 0      
355 1 1.2010395010395 187.84383407652865 -17.763824543662558 0.0 0 0 0      
356 2 2.40077962577963 189.7104536201834 -15.690845050458087 1.9725 0 0 0      
357 3 -1.1996106368251 187.74065410175376 -15.794025025232969 1.9725 0 0 0      
358 3 -1.1996106368251 189.81363359495828 -17.660644568887676 1.9725 0 0 0      
359 3 -1.1996106368251 189.7104536201834 -15.690845050458087 0.0 0 0 0      
360 1 1.2010395010395 191.78343311338784 -17.557464594112794 0.0 0 0 0      
361 2 2.40077962577963 193.6500526570425 -15.484485100908323 1.9725 0 0 0      
362 3 -1.1996106368251 191.68025313861293 -15.587665075683205 1.9725 0 0 0      
363 3 -1.1996106368251 193.7532326318174 -17.454284619337905 1.9725 0 0 0      
364 3 -1.1996106368251 193.6500526570425 -15.484485100908323 0.0 0 0 0      
365 1 1.2010395010395 195.72303215024695 -17.35110464456303 0.0 0 0 0      
366 2 2.40077962577963 197.58965169390177 -15.278125151358559 1.9725 0 0 0      
367 3 -1.1996106368251 195.6198521754721 -15.381305126133434 1.9725 0 0 0      
368 3 -1.1996106368251 197.69283166867663 -17.247924669788134 1.9725 0 0 0      
369 3 -1.1996106368251 197.58965169390177 -15.278125151358559 0.0 0 0 0      
370 1 1.2010395010395 199.66263118710623 -17.14474469501326 0.0 0 0 0      
371 2 2.40077962577963 201.5292507307609 -15.071765201808788 1.9725 0 0 0      
372 3 -1.1996106368251 199.5594512123313 -15.17494517658367 1.9725 0 0 0      
373 3 -1.1996106368251 201.6324307055358 -17.041564720238377 1.9725 0 0 0      
374 3 -1.1996106368251 201.5292507307609 -15.071765201808788 0.0 0 0 0      
375 1 1.2010395010395 203.60223022396536 -16.938384745463487 0.0 0 0 0      